
                                 *****************
                                 * O   R   C   A *
                                 *****************

                                            #,                                       
                                            ###                                      
                                            ####                                     
                                            #####                                    
                                            ######                                   
                                           ########,                                 
                                     ,,################,,,,,                         
                               ,,#################################,,                 
                          ,,##########################################,,             
                       ,#########################################, ''#####,          
                    ,#############################################,,   '####,        
                  ,##################################################,,,,####,       
                ,###########''''           ''''###############################       
              ,#####''   ,,,,##########,,,,          '''####'''          '####       
            ,##' ,,,,###########################,,,                        '##       
           ' ,,###''''                  '''############,,,                           
         ,,##''                                '''############,,,,        ,,,,,,###''
      ,#''                                            '''#######################'''  
     '                                                          ''''####''''         
             ,#######,   #######,   ,#######,      ##                                
            ,#'     '#,  ##    ##  ,#'     '#,    #''#        ######   ,####,        
            ##       ##  ##   ,#'  ##            #'  '#       #        #'  '#        
            ##       ##  #######   ##           ,######,      #####,   #    #        
            '#,     ,#'  ##    ##  '#,     ,#' ,#      #,         ##   #,  ,#        
             '#######'   ##     ##  '#######'  #'      '#     #####' # '####'        



                  #######################################################
                  #                        -***-                        #
                  #          Department of theory and spectroscopy      #
                  #    Directorship and core code : Frank Neese         #
                  #        Max Planck Institute fuer Kohlenforschung    #
                  #                Kaiser Wilhelm Platz 1               #
                  #                 D-45470 Muelheim/Ruhr               #
                  #                      Germany                        #
                  #                                                     #
                  #                  All rights reserved                #
                  #                        -***-                        #
                  #######################################################


                         Program Version 5.0.3 -  RELEASE  -


 With contributions from (in alphabetic order):
   Daniel Aravena         : Magnetic Suceptibility
   Michael Atanasov       : Ab Initio Ligand Field Theory (pilot matlab implementation)
   Alexander A. Auer      : GIAO ZORA, VPT2 properties, NMR spectrum
   Ute Becker             : Parallelization
   Giovanni Bistoni       : ED, misc. LED, open-shell LED, HFLD
   Martin Brehm           : Molecular dynamics
   Dmytro Bykov           : SCF Hessian
   Vijay G. Chilkuri      : MRCI spin determinant printing, contributions to CSF-ICE
   Dipayan Datta          : RHF DLPNO-CCSD density
   Achintya Kumar Dutta   : EOM-CC, STEOM-CC
   Dmitry Ganyushin       : Spin-Orbit,Spin-Spin,Magnetic field MRCI
   Miquel Garcia          : C-PCM and meta-GGA Hessian, CC/C-PCM, Gaussian charge scheme
   Yang Guo               : DLPNO-NEVPT2, F12-NEVPT2, CIM, IAO-localization
   Andreas Hansen         : Spin unrestricted coupled pair/coupled cluster methods
   Benjamin Helmich-Paris : MC-RPA, TRAH-SCF, COSX integrals
   Lee Huntington         : MR-EOM, pCC
   Robert Izsak           : Overlap fitted RIJCOSX, COSX-SCS-MP3, EOM
   Marcus Kettner         : VPT2
   Christian Kollmar      : KDIIS, OOCD, Brueckner-CCSD(T), CCSD density, CASPT2, CASPT2-K
   Simone Kossmann        : Meta GGA functionals, TD-DFT gradient, OOMP2, MP2 Hessian
   Martin Krupicka        : Initial AUTO-CI
   Lucas Lang             : DCDCAS
   Marvin Lechner         : AUTO-CI (C++ implementation), FIC-MRCC
   Dagmar Lenk            : GEPOL surface, SMD
   Dimitrios Liakos       : Extrapolation schemes; Compound Job, initial MDCI parallelization
   Dimitrios Manganas     : Further ROCIS development; embedding schemes
   Dimitrios Pantazis     : SARC Basis sets
   Anastasios Papadopoulos: AUTO-CI, single reference methods and gradients
   Taras Petrenko         : DFT Hessian,TD-DFT gradient, ASA, ECA, R-Raman, ABS, FL, XAS/XES, NRVS
   Peter Pinski           : DLPNO-MP2, DLPNO-MP2 Gradient
   Christoph Reimann      : Effective Core Potentials
   Marius Retegan         : Local ZFS, SOC
   Christoph Riplinger    : Optimizer, TS searches, QM/MM, DLPNO-CCSD(T), (RO)-DLPNO pert. Triples
   Tobias Risthaus        : Range-separated hybrids, TD-DFT gradient, RPA, STAB
   Michael Roemelt        : Original ROCIS implementation
   Masaaki Saitow         : Open-shell DLPNO-CCSD energy and density
   Barbara Sandhoefer     : DKH picture change effects
   Avijit Sen             : IP-ROCIS
   Kantharuban Sivalingam : CASSCF convergence, NEVPT2, FIC-MRCI
   Bernardo de Souza      : ESD, SOC TD-DFT
   Georgi Stoychev        : AutoAux, RI-MP2 NMR, DLPNO-MP2 response
   Willem Van den Heuvel  : Paramagnetic NMR
   Boris Wezisla          : Elementary symmetry handling
   Frank Wennmohs         : Technical directorship


 We gratefully acknowledge several colleagues who have allowed us to
 interface, adapt or use parts of their codes:
   Stefan Grimme, W. Hujo, H. Kruse, P. Pracht,  : VdW corrections, initial TS optimization,
                  C. Bannwarth, S. Ehlert          DFT functionals, gCP, sTDA/sTD-DF
   Ed Valeev, F. Pavosevic, A. Kumar             : LibInt (2-el integral package), F12 methods
   Garnet Chan, S. Sharma, J. Yang, R. Olivares  : DMRG
   Ulf Ekstrom                                   : XCFun DFT Library
   Mihaly Kallay                                 : mrcc  (arbitrary order and MRCC methods)
   Jiri Pittner, Ondrej Demel                    : Mk-CCSD
   Frank Weinhold                                : gennbo (NPA and NBO analysis)
   Christopher J. Cramer and Donald G. Truhlar   : smd solvation model
   Lars Goerigk                                  : TD-DFT with DH, B97 family of functionals
   V. Asgeirsson, H. Jonsson                     : NEB implementation
   FAccTs GmbH                                   : IRC, NEB, NEB-TS, DLPNO-Multilevel, CI-OPT
                                                   MM, QMMM, 2- and 3-layer-ONIOM, Crystal-QMMM,
                                                   LR-CPCM, SF, NACMEs, symmetry and pop. for TD-DFT,
                                                   nearIR, NL-DFT gradient (VV10), updates on ESD,
                                                   ML-optimized integration grids
   S Lehtola, MJT Oliveira, MAL Marques          : LibXC Library
   Liviu Ungur et al                             : ANISO software


 Your calculation uses the libint2 library for the computation of 2-el integrals
 For citations please refer to: http://libint.valeyev.net

 Your ORCA version has been built with support for libXC version: 5.1.0
 For citations please refer to: https://tddft.org/programs/libxc/

 This ORCA versions uses:
   CBLAS   interface :  Fast vector & matrix operations
   LAPACKE interface :  Fast linear algebra routines
   SCALAPACK package :  Parallel linear algebra routines
   Shared memory     :  Shared parallel matrices
   BLAS/LAPACK       :  OpenBLAS 0.3.15  USE64BITINT DYNAMIC_ARCH NO_AFFINITY Haswell SINGLE_THREADED
        Core in use  :  Haswell
   Copyright (c) 2011-2014, The OpenBLAS Project




***************************************
The coordinates will be read from file: d1.xyz
***************************************


Your calculation utilizes the atom-pairwise dispersion correction
with the Becke-Johnson damping scheme (D3BJ)
Cite in your paper:
S.Grimme, S.Ehrlich, L.Goerigk, J Comput Chem, (2011), 32, 1456–1465 
S.Grimme, J.Antony, S.Ehrlich and H.Krieg, J.Chem.Phys., 132, (2010), 154104 
   

Your calculation utilizes a Nudged-Elastic-Band implementation
 by V.Asgeirsson, C. Riplinger & H. Jonsson
Please cite in your paper:
 V. Asgeirsson et al., in prep. (2019)
   

================================================================================

----- Orbital basis set information -----
Your calculation utilizes the basis: def2-SVP
   F. Weigend and R. Ahlrichs, Phys. Chem. Chem. Phys. 7, 3297 (2005).

----- AuxJ basis set information -----
Your calculation utilizes the auxiliary basis: def2/J
   F. Weigend, Phys. Chem. Chem. Phys. 8, 1057 (2006).

================================================================================
                                        WARNINGS
                       Please study these warnings very carefully!
================================================================================


WARNING: The environment variable RSH_COMMAND is not set!
  ===> : All Displacements for the Numerical Hessian or Gradient calculation
         will be started on localhost

WARNING: Geometry Optimization
  ===> : Switching off AutoStart
         For restart on a previous wavefunction, please use MOREAD

INFO   : the flag for use of the SHARK integral package has been found!

================================================================================
                                       INPUT FILE
================================================================================
NAME = sn2.inp
|  1> !BLYP D3BJ def2-SVP NEB-TS NumFreq xyzfile
|  2> 
|  3> %Freq
|  4> Temp 298.15
|  5> end
|  6> 
|  7> %pal
|  8> nprocs 6
|  9> end
| 10> 
| 11> %NEB
| 12> NEB_END_XYZFILE "d2.xyz"
| 13> end
| 14> 
| 15> *xyzfile 0 1 d1.xyz
| 16> 
| 17>                          ****END OF INPUT****
================================================================================


--------------------------------------------------------------------------------
                        Nudged Elastic Band Calculation
--------------------------------------------------------------------------------

Number of images (incl. end points)     ....  10
Number of intermediate images           ....  8
Number of optimized images              ....  8
Optimization of end points before NEB   ....  NO
Use existing gbw files for MO input     ....  NO
Number of atoms                         ....  14
Number of (active) degrees of freedom   ....  42
Constrained atoms                       ....  None

-----------------------------------------
  REACTANT (ANGSTROEM)
-----------------------------------------
C     -3.845000    -0.175710    -0.039210 
C     -2.444920     0.320820     0.154660 
H     -4.023990    -1.040860     0.604090 
H     -4.004010    -0.436150    -1.088610 
H     -4.550590     0.613920     0.234660 
O     -1.555090    -0.651880    -0.180180 
C     -0.184330    -0.274970    -0.029160 
H      0.053730     0.570330    -0.682080 
H      0.435010    -1.126190    -0.324990 
H      0.032940    -0.034940     1.016150 
O     -2.158270     1.441830     0.556530 
O     -0.067670     3.078810     1.166470 
H     -0.509230     3.900740     1.427890 
H     -0.831670     2.500850     0.955380 

-----------------------------------------
  PRODUCT (ANGSTROEM)
-----------------------------------------
C     -3.445960    -0.053880     0.068740 
C     -2.452750     1.008910     0.404030 
H     -3.345850    -0.891570     0.763740 
H     -3.296830    -0.389370    -0.959860 
H     -4.455980     0.353250     0.172750 
O      0.131930    -1.798940    -0.302480 
C      1.498930    -1.433010    -0.266620 
H      1.664620    -0.573880    -0.921410 
H      2.102880    -2.274560    -0.614170 
H      1.783630    -1.182380     0.758290 
O     -2.671520     2.203140     0.501090 
O     -1.204900     0.525540     0.577500 
H     -0.695840     1.336510     0.800130 
H     -0.376070    -1.035300     0.038540 



----------------------
NEB settings
----------------------
Method type                             ....  climbing image
Threshold for climbing image            ....  2.00e-02 Eh/Bohr 
Free endpoints                          ....  off 
Tangent type                            ....  improved 
Number of intermediate images           ....  8 
Number of images free to move           ....  8 
Spring type for image distribution      ....  distance between adjacent images 
Spring constant                         ....  energy weighted (0.0100 -to- 0.1000) Eh/Bohr^2 
Spring force perp. to the path          ....  none 
Generation of initial path              ....  image dependent pair potential 
Initial path via TS guess               ....  off 

Minimization of RMSD: Rotation          ....  always 
Minimization of RMSD: Translation type  ....  centroid 
Center fixed to origin                  ....  true 
Remove external force                   ....  true 

Reparametrization of the path           ....  off 
Convergence thresholds:
Convergence monitored for               ....  all images
Scaling factor                          ....  10.00

Convergence parameters for regular images:
               Max(|Fp|)                ....  2.00e-02 Eh/Bohr
               RMS(Fp)                  ....  1.00e-02 Eh/Bohr

Convergence parameters for climbing image:
               Max(|F|)                 ....  2.00e-03 Eh/Bohr
               RMS(F)                   ....  1.00e-03 Eh/Bohr
Optimization method:
Method                                  ....  L-BFGS
Max. iterations                         ....  500 
Step size                               ....  1.00 
Maximum allowed step size               ....  0.10 Bohr

LBFGS parameters: 
               Memory                   ....  20 
               Initial step size        ....  0.0010 
               Estimate curvature       ....  YES 
               Reset on maxmove         ....  YES 
               Reparam. on reset        ....  NO 
Generation of  the initial path:
Minimize RMSD between reactant and product configurations     .... done
       RMSD before minimization         ....  2.1106 Bohr
       RMSD after minimization          ....  1.6912 Bohr
Performing linear interpolation         ....  done
Interpolation using                     ....  IDPP (Image Dependent Pair Potential)
IDPP-Settings:
       Remove global transl. and rot.   ...   true
       Convergence tolerance            ....  0.0100 1/Ang.^3
       Max. numer of iterations         ....    7000
       Spring constant                  ....  1.0000 1/Ang.^4
       Time step                        ....  0.0100 fs
       Max. movement per iteration      ....  0.0500 Ang.
       Full print                       ....  false 
idpp initial path generation successfully converged in 278 iterations
Displacement along initial path:             12.6771 Bohr
Writing initial trajectory to file      ....  sn2_initial_path_trj.xyz



----------------------
NEB OPTIMIZATION      
----------------------

Following output files will be written:
Energy profile during opt. written to    ....  sn2.interp
Optimization log-file                    ....  sn2.NEB.log
Current trajectory will be written to    ....  sn2_MEP_trj.xyz
       and to allxyz file                ....  sn2_MEP.allxyz
       and individual images to xyz file ....  sn2_im{NIm}.xyz
Trajectory history will be written to    ....  sn2_MEP_ALL_trj.xyz
Converged CI will be written to          ....  sn2_NEB-CI_converged.xyz
Converged TS will be written to          ....  sn2_NEB-TS_converged.xyz

Single point energy and gradient calculation of reactant and
product configurations (have to be performed only once)
Properties of fixed NEB end points:
               Reactant:
                         E               ....   -344.462098 Eh
                         RMS(F)          ....      0.004802 Eh/Bohr
                         MAX(|F|)        ....      0.010209 Eh/Bohr
               Product:
                         E               ....   -344.455953 Eh
                         RMS(F)          ....      0.007980 Eh/Bohr
                         MAX(|F|)        ....      0.022568 Eh/Bohr
      Warning: Product seems to be less converged than convergence tolerances.
               You might want to use free end NEB or preopt_ends true.



Starting iterations:

Optim.  Iteration  HEI  E(HEI)-E(0)  max(|Fp|)   RMS(Fp)    dS
Switch-on CI threshold               0.020000 
   LBFGS     0      4    0.260972    0.113621   0.024902  12.6771       
   LBFGS     1      4    0.234936    0.108962   0.018549  12.6813       
   LBFGS     2      5    0.219741    0.098450   0.018280  12.7062       
   LBFGS     3      6    0.207119    0.086225   0.016655  12.7331       
   LBFGS     4      6    0.198265    0.094706   0.016341  12.7982       
   LBFGS     5      6    0.189298    0.090135   0.015082  12.8830       
   LBFGS     6      6    0.182199    0.054443   0.011284  12.9617       
   LBFGS     7      6    0.171119    0.051855   0.009148  13.1615       
   LBFGS     8      6    0.165494    0.075003   0.012701  13.3559       
   LBFGS     9      5    0.162672    0.070835   0.012442  13.6072       
   LBFGS    10      5    0.158596    0.058014   0.009907  13.6212       
   LBFGS    11      5    0.156698    0.027848   0.006522  13.6390       
   LBFGS    12      5    0.155608    0.038518   0.006822  13.7595       
   LBFGS    13      5    0.155379    0.066544   0.009520  13.8117       
   LBFGS    14      5    0.155011    0.046850   0.007609  13.8555       
   LBFGS    15      5    0.154865    0.052022   0.006728  13.9304       
   LBFGS    16      5    0.151308    0.047081   0.007013  13.8895       
   LBFGS    17      5    0.151497    0.046473   0.006008  13.8819       
   LBFGS    18      5    0.151938    0.067023   0.006645  13.8940       
   LBFGS    19      5    0.147902    0.019683   0.003927  13.8982       

Image  5 will be converted to a climbing image in the next iteration (max(|Fp|) < 0.0200) 

Optim.  Iteration  CI   E(CI)-E(0)   max(|Fp|)   RMS(Fp)    dS     max(|FCI|)   RMS(FCI)
Convergence thresholds               0.020000   0.010000            0.002000    0.001000 
   LBFGS    20      5    0.153071    0.109132   0.010277  13.8998    0.098581    0.024951       
   LBFGS    21      5    0.149650    0.047423   0.005832  13.9017    0.062870    0.016584       
   LBFGS    22      5    0.148059    0.020462   0.003829  13.9337    0.069010    0.014940       
   LBFGS    23      5    0.144044    0.015171   0.003349  13.9072    0.015528    0.004855       
   LBFGS    24      5    0.144137    0.016530   0.003120  13.9008    0.029335    0.006677       
   LBFGS    25      5    0.144643    0.020036   0.004231  13.9106    0.054864    0.012546       
   LBFGS    26      5    0.141743    0.017092   0.003660  13.9206    0.018115    0.005018       
   LBFGS    27      5    0.141644    0.012829   0.002962  13.9318    0.019885    0.005365       
   LBFGS    28      5    0.142905    0.017561   0.004070  13.9891    0.060971    0.013594       
   LBFGS    29      5    0.142929    0.027749   0.005694  14.0677    0.075354    0.017249       
   LBFGS    30      5    0.138019    0.016171   0.003536  14.0411    0.018205    0.005021       
   LBFGS    31      5    0.137711    0.009720   0.002503  14.0351    0.014049    0.003890       
   LBFGS    32      5    0.137497    0.018551   0.003141  14.0410    0.026132    0.006098       
   LBFGS    33      5    0.136654    0.037485   0.005285  14.1015    0.040312    0.009998       
   LBFGS    34      5    0.134930    0.018013   0.003313  14.1190    0.021398    0.005426       
   LBFGS    35      5    0.134509    0.010089   0.002450  14.1349    0.010162    0.003692       
   LBFGS    36      5    0.134018    0.015747   0.003221  14.1687    0.018339    0.005312       
   LBFGS    37      5    0.132478    0.040212   0.006238  14.2776    0.032690    0.009573       
   LBFGS    38      5    0.130280    0.055890   0.008351  14.4194    0.043410    0.012157       
   LBFGS    39      5    0.128519    0.025511   0.004346  14.3729    0.026318    0.006813       
   LBFGS    40      5    0.127794    0.008356   0.002406  14.3536    0.009796    0.003432       
   LBFGS    41      5    0.127242    0.011535   0.002390  14.3505    0.006523    0.002972       
   LBFGS    42      5    0.126065    0.024118   0.003832  14.3758    0.024449    0.006108       
   LBFGS    43      5    0.123337    0.038935   0.006009  14.4802    0.020684    0.006573       
   LBFGS    44      5    0.122506    0.024638   0.004531  14.4745    0.018246    0.004988       
   LBFGS    45      5    0.122002    0.024552   0.003388  14.4778    0.010308    0.003394       
   LBFGS    46      5    0.121201    0.011890   0.002934  14.5284    0.011031    0.003934       
   LBFGS    47      5    0.120020    0.025639   0.004299  14.5864    0.017714    0.005054       
   LBFGS    48      5    0.117080    0.049084   0.006191  14.7373    0.021917    0.005060       
   LBFGS    49      5    0.116911    0.035027   0.004646  14.6880    0.025115    0.005929       
   LBFGS    50      5    0.116272    0.013368   0.002543  14.6683    0.009413    0.003076       
   LBFGS    51      5    0.115508    0.009522   0.002411  14.6833    0.005953    0.002599       
   LBFGS    52      5    0.114059    0.024333   0.004127  14.7790    0.023790    0.005598       
   LBFGS    53      5    0.111468    0.031977   0.005319  14.9972    0.018500    0.004807       
   LBFGS    54      5    0.111346    0.037879   0.005209  14.9628    0.025522    0.006272       
   LBFGS    55      5    0.110826    0.026188   0.003930  14.9504    0.018330    0.004678       
   LBFGS    56      5    0.109642    0.010767   0.002634  15.0038    0.007505    0.002772       
   LBFGS    57      5    0.109250    0.034664   0.004399  15.0131    0.022582    0.005317       
   LBFGS    58      5    0.108506    0.025381   0.003564  15.0322    0.012082    0.003460       
   LBFGS    59      5    0.105888    0.021585   0.003850  15.1700    0.007952    0.002782       
   LBFGS    60      5    0.105350    0.037562   0.004281  15.1833    0.017807    0.004532       
   LBFGS    61      5    0.104592    0.017081   0.003166  15.2325    0.012700    0.003594       
   LBFGS    62      5    0.104164    0.013187   0.002786  15.2507    0.007552    0.002616       
   LBFGS    63      5    0.101574    0.031142   0.004116  15.3956    0.011811    0.003231       
   LBFGS    64      5    0.101296    0.019127   0.003075  15.3829    0.017567    0.004445       
   LBFGS    65      5    0.100773    0.017016   0.002591  15.3862    0.006857    0.002608       
   LBFGS    66      5    0.099806    0.014995   0.003067  15.4154    0.010864    0.003252       
   LBFGS    67      5    0.097794    0.029484   0.004047  15.5407    0.030300    0.007730       
   LBFGS    68      5    0.094718    0.038497   0.005426  15.7023    0.021376    0.005566       
   LBFGS    69      5    0.094709    0.042495   0.005464  15.6787    0.033301    0.008323       
   LBFGS    70      5    0.093958    0.024679   0.003381  15.6813    0.015832    0.004331       
   LBFGS    71      5    0.093030    0.010243   0.002310  15.7366    0.007603    0.002583       
   LBFGS    72      5    0.092551    0.017254   0.002714  15.7759    0.020793    0.005136       
   LBFGS    73      5    0.091259    0.039518   0.004873  15.9340    0.046666    0.012019       
   LBFGS    74      5    0.089954    0.050917   0.006125  16.1150    0.060596    0.016052       
   LBFGS    75      5    0.087149    0.028501   0.003941  16.0857    0.035498    0.008900       
   LBFGS    76      5    0.086366    0.017700   0.002843  16.0749    0.013313    0.003707       
   LBFGS    77      5    0.085730    0.013762   0.002287  16.0564    0.015400    0.003966       
   LBFGS    78      5    0.085170    0.013447   0.002355  16.0791    0.021210    0.005472       
   LBFGS    79      5    0.082188    0.033186   0.005269  16.2297    0.006642    0.002461       
   LBFGS    80      5    0.081956    0.029817   0.004234  16.2212    0.006723    0.002373       
   LBFGS    81      5    0.081729    0.024921   0.003325  16.2244    0.006848    0.002326       
   LBFGS    82      5    0.080383    0.022582   0.003497  16.3225    0.007200    0.002303       
   LBFGS    83      5    0.079163    0.032971   0.005465  16.4218    0.007295    0.002359       
   LBFGS    84      5    0.078538    0.026746   0.004513  16.4493    0.007210    0.002330       
   LBFGS    85      5    0.075946    0.020545   0.003493  16.5878    0.007233    0.002330       
   LBFGS    86      5    0.075591    0.036108   0.004873  16.5624    0.007061    0.002517       
   LBFGS    87      5    0.075284    0.019332   0.002904  16.5567    0.006488    0.002246       
   LBFGS    88      5    0.074481    0.013196   0.002427  16.5890    0.006043    0.002169       
   LBFGS    89      5    0.073605    0.023126   0.003506  16.6439    0.005892    0.002182       
   LBFGS    90      5    0.071322    0.043376   0.005374  16.8122    0.007082    0.002512       
   LBFGS    91      5    0.071126    0.041746   0.004636  16.8003    0.007490    0.002391       
   LBFGS    92      5    0.070981    0.023139   0.002963  16.8001    0.006105    0.002121       
   LBFGS    93      5    0.070354    0.011012   0.002107  16.8549    0.006072    0.002009       
   LBFGS    94      5    0.069871    0.014897   0.002364  16.8932    0.006078    0.001953       
   LBFGS    95      5    0.068046    0.022287   0.003196  17.0618    0.011713    0.003082       
   LBFGS    96      5    0.067882    0.019386   0.002991  17.0606    0.010435    0.003170       
   LBFGS    97      5    0.067706    0.014015   0.002357  17.0649    0.007636    0.002541       
   LBFGS    98      5    0.066581    0.011415   0.002326  17.1708    0.005026    0.001963       
   LBFGS    99      5    0.065720    0.017652   0.003128  17.2810    0.009738    0.003089       
   LBFGS   100      5    0.063811    0.023931   0.004031  17.5465    0.013496    0.004048       
   LBFGS   101      5    0.063677    0.025344   0.003615  17.5339    0.015386    0.004259       
   LBFGS   102      5    0.063460    0.017772   0.002727  17.5300    0.010291    0.002993       
   LBFGS   103      5    0.062746    0.010046   0.002080  17.5939    0.005573    0.001979       
   LBFGS   104      5    0.062626    0.019951   0.003247  17.6575    0.019203    0.005594       
   LBFGS   105      5    0.062182    0.017494   0.002712  17.6921    0.014421    0.004382       
   LBFGS   106      5    0.060364    0.010607   0.002078  17.9160    0.007990    0.002108       
   LBFGS   107      5    0.060521    0.027719   0.003031  17.9354    0.025245    0.006716       
   LBFGS   108      5    0.059907    0.010977   0.001709  17.9666    0.009506    0.002830       
   LBFGS   109      5    0.059455    0.006638   0.001608  18.0396    0.004311    0.001565       
   LBFGS   110      5    0.059015    0.012991   0.002142  18.1444    0.010602    0.003094       
   LBFGS   111      5    0.057627    0.030564   0.004105  18.5463    0.024332    0.006295       
   LBFGS   112      5    0.057276    0.017072   0.002998  18.5297    0.015341    0.004475       
   LBFGS   113      5    0.057092    0.011778   0.002336  18.5216    0.009841    0.002972       
   LBFGS   114      5    0.056589    0.010651   0.001599  18.5460    0.003393    0.001341       
   LBFGS   115      5    0.056640    0.027306   0.002799  18.5940    0.018247    0.005237       
   LBFGS   116      5    0.056311    0.014515   0.001906  18.6193    0.012327    0.003557       
   LBFGS   117      5    0.055387    0.013919   0.002441  18.8178    0.011340    0.003424       
   LBFGS   118      5    0.054666    0.023456   0.002927  18.9916    0.011922    0.003457       
   LBFGS   119      5    0.054026    0.021430   0.003012  19.3691    0.032763    0.008480       
   LBFGS   120      5    0.053366    0.012976   0.002020  19.3706    0.014298    0.003643       
   LBFGS   121      5    0.053296    0.010866   0.001692  19.3763    0.012521    0.003297       
   LBFGS   122      5    0.052924    0.020879   0.002812  19.4757    0.002546    0.001000       
   LBFGS   123      5    0.052769    0.026959   0.003689  19.5554    0.002558    0.000990       
   LBFGS   124      5    0.052805    0.006771   0.001231  19.5202    0.002603    0.000966       
   LBFGS   125      5    0.052759    0.003533   0.000832  19.5294    0.002607    0.000940       
   LBFGS   126      5    0.052503    0.014048   0.001911  19.6088    0.002379    0.000890       
   LBFGS   127      5    0.052115    0.018883   0.002636  19.7619    0.002324    0.000936       
   LBFGS   128      5    0.051600    0.017221   0.003014  20.0046    0.004222    0.001200       
   LBFGS   129      5    0.051568    0.009173   0.001632  20.0052    0.002120    0.000834       
   LBFGS   130      5    0.051548    0.007279   0.001326  20.0056    0.001980    0.000739       

                                .--------------------.
          ----------------------| CI-NEB convergence |-------------------------
          Item                value                   Tolerance       Converged
          ---------------------------------------------------------------------
          RMS(Fp)             0.0013257770            0.0100000000      YES
          MAX(|Fp|)           0.0072789413            0.0200000000      YES
          RMS(FCI)            0.0007386445            0.0010000000      YES
          MAX(|FCI|)          0.0019797384            0.0020000000      YES
          ---------------------------------------------------------------------

The elastic band and climbing image have converged successfully to a MEP in 130 iterations!


                    *********************H U R R A Y*********************
                    ***        THE NEB OPTIMIZATION HAS CONVERGED     ***
                    *****************************************************



---------------------------------------------------------------
                         PATH SUMMARY              
---------------------------------------------------------------
All forces in Eh/Bohr.

Image Dist.(Ang.)    E(Eh)   dE(kcal/mol)  max(|Fp|)  RMS(Fp)
  0     0.000    -344.46210      0.00       0.00991   0.00479
  1     2.594    -344.46463     -1.59       0.00191   0.00072
  2     4.902    -344.45600      3.83       0.00220   0.00070
  3     5.327    -344.43495     17.04       0.00649   0.00166
  4     5.581    -344.41787     27.75       0.00466   0.00136
  5     5.804    -344.41055     32.35       0.00197   0.00074 <= CI
  6     6.107    -344.42443     23.64       0.00415   0.00137
  7     6.505    -344.45038      7.35       0.00728   0.00251
  8     7.795    -344.46200      0.06       0.00607   0.00141
  9    10.586    -344.45595      3.86       0.02361   0.00793

Straight line distance between images along the path:
        D( 0- 1) =   2.5935 Ang.
        D( 1- 2) =   2.3082 Ang.
        D( 2- 3) =   0.4252 Ang.
        D( 3- 4) =   0.2544 Ang.
        D( 4- 5) =   0.2231 Ang.
        D( 5- 6) =   0.3027 Ang.
        D( 6- 7) =   0.3977 Ang.
        D( 7- 8) =   1.2905 Ang.
        D( 8- 9) =   2.7911 Ang.

---------------------------------------------------------------
               INFORMATION ABOUT SADDLE POINT     
---------------------------------------------------------------

Climbing image                            ....  5 
Energy                                    ....  -344.41054998 Eh
Max. abs. force                           ....  1.9797e-03 Eh/Bohr

-----------------------------------------
  SADDLE POINT (ANGSTROEM)
-----------------------------------------
C     -1.906194    -0.269206     0.016868 
C     -0.671355     0.468452    -0.420955 
H     -1.747255    -0.719622     1.009640 
H     -2.104914    -1.069303    -0.724174 
H     -2.769843     0.423795     0.050035 
O      0.616317    -0.589562     0.400424 
C      1.843029    -0.785806    -0.287916 
H      1.951144    -0.098370    -1.160913 
H      1.915723    -1.833537    -0.657293 
H      2.698501    -0.608270     0.402191 
O     -0.351081     0.993101    -1.444881 
O     -0.231207     1.437496     1.087479 
H      0.279699     2.176887     0.693508 
H      0.477435     0.473944     1.035987 

-----------------------------------------
  FORCES (Eh/Bohr)
-----------------------------------------
C      0.000395     0.000355    -0.000066 
C     -0.000509    -0.001785     0.001064 
H     -0.001045     0.000203    -0.000117 
H     -0.000103     0.000609     0.000359 
H      0.000799     0.000500    -0.000859 
O      0.001240    -0.000595     0.000713 
C     -0.000101     0.000464    -0.000105 
H     -0.001661     0.000423     0.000264 
H     -0.000592     0.001110    -0.000344 
H      0.000050     0.000280    -0.000977 
O      0.001980    -0.001159     0.000035 
O      0.000041    -0.000550    -0.000494 
H     -0.000533    -0.000056     0.000038 
H      0.000040     0.000201     0.000490 

-----------------------------------------
  UNIT TANGENT
-----------------------------------------
C     -0.017691     0.042261     0.016338 
C     -0.201661     0.449228     0.153287 
H      0.002495     0.016508     0.005937 
H      0.060587     0.058613    -0.017575 
H     -0.075475    -0.033229     0.030102 
O      0.178443    -0.029167     0.282825 
C      0.054775     0.008533     0.079552 
H     -0.021287     0.009349     0.047370 
H     -0.027007     0.015968     0.042485 
H      0.122416    -0.019832    -0.017857 
O     -0.036320     0.057498     0.007019 
O     -0.209643    -0.039761    -0.341433 
H     -0.059788     0.008711    -0.068839 
H      0.230157    -0.544679    -0.219211 
 => Unit tangent is an approximation to the TS mode at the saddle point

Next a TS optimization is performed on the CI from the NEB run.

         *************************************************************
         *                       TS OPTIMIZATION                     *
         *************************************************************


Following output files will be written:
Converged TS will be written to          ....  sn2_NEB-TS_converged.xyz
                                         ....  sn2.xyz
Current trajectory will be written to    ....  sn2_trj.xyz
Initial Hessian will be stored in        ....  sn2.appr.hess
Geometry optimization settings:
Update method            Update   .... Bofill
Choice of coordinates    CoordSys .... Z-matrix Internals
Initial Hessian          InHess   .... Read

Convergence Tolerances:
Energy Change            TolE     ....  5.0000e-06 Eh
Max. Gradient            TolMAXG  ....  3.0000e-04 Eh/bohr
RMS Gradient             TolRMSG  ....  1.0000e-04 Eh/bohr
Max. Displacement        TolMAXD  ....  4.0000e-03 bohr
RMS Displacement         TolRMSD  ....  2.0000e-03 bohr
Strict Convergence                ....  False
------------------------------------------------------------------------------
                        ORCA OPTIMIZATION COORDINATE SETUP
------------------------------------------------------------------------------

The optimization will be done in new redundant internal coordinates
Making redundant internal coordinates   ...  (new redundants) done
Following TS mode number                ...     0
TS-active-atoms for coordinate setup... 1 5 11 13 
Evaluating the initial hessian          ... (Reading Exact Hessian)...  
InHessName: sn2.appr.hess	The file <sn2.appr.hess> is opened as a .hess file
done
done
Diagonalizing the Hessian               .... done
Dimension of the hessian                .... 71
Lowest eigenvalues of the non projected Hessian:
 -0.031983929 -0.000000000 -0.000000000 -0.000000000 -0.000000000
done
Evaluating the coordinates              ...  done
Calculating the B-matrix                .... done
Calculating the G-matrix                .... done
Diagonalizing the G-matrix              .... done
The first mode is                       ....   35
The number of degrees of freedom        ....   36

    -----------------------------------------------------------------
                    Redundant Internal Coordinates


    -----------------------------------------------------------------
         Definition                    Initial Value    d2E/dq (diagonal element)
    -----------------------------------------------------------------
      1. B(C   1,C   0)                  1.5035         0.411756   
      2. B(H   2,C   0)                  1.1017         0.344959   
      3. B(H   3,C   0)                  1.1085         0.336776   
      4. B(H   4,C   0)                  1.1078         0.337725   
      5. B(O   5,C   1)                  1.8580         0.086348   
      6. B(C   6,O   5)                  1.4203         0.501532   
      7. B(H   7,C   6)                  1.1164         0.327479   
      8. B(H   8,C   6)                  1.1133         0.330785   
      9. B(H   9,C   6)                  1.1134         0.332763   
     10. B(O  10,C   1)                  1.1943         1.148666   
     11. B(O  11,O   5)                  2.3020         0.042960   
     12. B(O  11,C   1)                  1.8461         0.077098   
     13. B(H  12,O  11)                  0.9813         0.480822   
     14. B(H  13,O  11)                  1.1972         0.064389   
     15. B(H  13,O   5)                  1.2467         0.059058   
     16. A(H   2,C   0,H   3)          109.4620         0.110243   
     17. A(C   1,C   0,H   4)          110.0039         0.242996   
     18. A(C   1,C   0,H   2)          110.1512         0.230632   
     19. A(H   3,C   0,H   4)          109.3765         0.107768   
     20. A(H   2,C   0,H   4)          109.9528         0.116705   
     21. A(C   1,C   0,H   3)          107.8592         0.239246   
     22. A(C   0,C   1,O   5)           99.2697         0.049393   
     23. A(O  10,C   1,O  11)          113.9545         0.040997   
     24. A(C   0,C   1,O  10)          133.2703         0.098540   
     25. A(O   5,C   1,O  11)           76.8474         0.012378   
     26. A(C   0,C   1,O  11)          102.4393         0.050780   
     27. A(O   5,C   1,O  10)          116.3163         0.041184   
     28. A(C   6,O   5,H  13)          117.4622         0.037237   
     29. A(C   1,O   5,H  13)           70.2695         0.031263   
     30. A(C   1,O   5,C   6)          117.5823         0.085078   
     31. A(H   8,C   6,H   9)          107.7909         0.123382   
     32. A(H   7,C   6,H   9)          108.1854         0.127328   
     33. A(O   5,C   6,H   9)          109.9506         0.239610   
     34. A(H   7,C   6,H   8)          108.2833         0.129099   
     35. A(O   5,C   6,H   8)          110.3182         0.231168   
     36. A(O   5,C   6,H   7)          112.1818         0.233733   
     37. A(H  12,O  11,H  13)          106.3193         0.043444   
     38. A(C   1,O  11,H  13)           71.5492         0.041704   
     39. A(C   1,O  11,H  12)          101.0461         0.101671   
     40. A(O   5,H  13,O  11)          140.7547         0.099968   
     41. D(O  10,C   1,C   0,H   4)    -66.3421         0.024140   
     42. D(O  11,C   1,C   0,H   4)     74.7965         0.022229   
     43. D(O  11,C   1,C   0,H   3)   -165.9780         0.022409   
     44. D(O   5,C   1,C   0,H   2)     31.8930         0.023418   
     45. D(O  10,C   1,C   0,H   3)     52.8834         0.024332   
     46. D(O  11,C   1,C   0,H   2)    -46.5644         0.022618   
     47. D(O  10,C   1,C   0,H   2)    172.2971         0.023196   
     48. D(O   5,C   1,C   0,H   4)    153.2539         0.022443   
     49. D(O   5,C   1,C   0,H   3)    -87.5206         0.022578   
     50. D(H  13,O   5,C   1,O  10)    106.6584         0.040317   
     51. D(C   6,O   5,C   1,O  11)   -115.2351         0.030848   
     52. D(C   6,O   5,C   1,O  10)     -4.7732         0.028270   
     53. D(H  13,O   5,C   1,C   0)   -104.5227         0.038009   
     54. D(H  13,O   5,C   1,O  11)     -3.8035         0.003834   
     55. D(C   6,O   5,C   1,C   0)    144.0457         0.028643   
     56. D(H   9,C   6,O   5,H  13)     51.0990         0.036523   
     57. D(H   9,C   6,O   5,C   1)    132.0225         0.036598   
     58. D(H   8,C   6,O   5,H  13)    169.8514         0.036735   
     59. D(H   8,C   6,O   5,C   1)   -109.2251         0.036537   
     60. D(H   7,C   6,O   5,H  13)    -69.3357         0.036519   
     61. D(H   7,C   6,O   5,C   1)     11.5879         0.036679   
     62. D(H  13,O  11,C   1,O   5)      3.9305         0.004044   
     63. D(H  13,O  11,C   1,C   0)    100.6987         0.037111   
     64. D(H  12,O  11,C   1,O  10)     -5.6051         0.027890   
     65. D(H  12,O  11,C   1,O   5)    107.6210         0.031146   
     66. D(H  13,O  11,C   1,O  10)   -109.2956         0.039192   
     67. D(H  12,O  11,C   1,C   0)   -155.6108         0.027676   
     68. D(O   5,H  13,O  11,H  12)   -105.5220         0.068290   
     69. D(O   5,H  13,O  11,C   1)     -9.0467         0.016998   
     70. D(O  11,H  13,O   5,C   6)    120.6491         0.062995   
     71. D(O  11,H  13,O   5,C   1)      9.0587         0.017316   
    -----------------------------------------------------------------

Number of atoms                         .... 14
Number of degrees of freedom            .... 71

         *************************************************************
         *                GEOMETRY OPTIMIZATION CYCLE   1            *
         *************************************************************


           ************************************************************
           *        Program running with 6 parallel MPI-processes     *
           *              working on a common directory               *
           ************************************************************
------------------------------------------------------------------------------
                           ORCA GTO INTEGRAL CALCULATION
                           -- RI-GTO INTEGRALS CHOSEN --
------------------------------------------------------------------------------
------------------------------------------------------------------------------
                   ___                                                        
                  /   \      - P O W E R E D   B Y -                         
                 /     \                                                     
                 |  |  |   _    _      __       _____    __    __             
                 |  |  |  | |  | |    /  \     |  _  \  |  |  /  |          
                  \  \/   | |  | |   /    \    | | | |  |  | /  /          
                 / \  \   | |__| |  /  /\  \   | |_| |  |  |/  /          
                |  |  |   |  __  | /  /__\  \  |    /   |      \           
                |  |  |   | |  | | |   __   |  |    \   |  |\   \          
                \     /   | |  | | |  |  |  |  | |\  \  |  | \   \       
                 \___/    |_|  |_| |__|  |__|  |_| \__\ |__|  \__/        
                                                                              
                      - O R C A' S   B I G   F R I E N D -                    
                                      &                                       
                       - I N T E G R A L  F E E D E R -                       
                                                                              
 v1 FN, 2020, v2 2021                                                         
------------------------------------------------------------------------------


Reading SHARK input file sn2.SHARKINP.tmp ... ok
----------------------
SHARK INTEGRAL PACKAGE
----------------------

Number of atoms                             ...     14
Number of basis functions                   ...    124
Number of shells                            ...     60
Maximum angular momentum                    ...      2
Integral batch strategy                     ... SHARK/LIBINT Hybrid
RI-J (if used) integral strategy            ... SPLIT-RIJ (Revised 2003 algorithm where possible)
Printlevel                                  ...      1
Contraction scheme used                     ... SEGMENTED contraction
Coulomb Range Separation                    ... NOT USED
Exchange Range Separation                   ... NOT USED
Finite Nucleus Model                        ... NOT USED
Auxiliary Coulomb fitting basis             ... AVAILABLE
   # of basis functions in Aux-J            ...    382
   # of shells in Aux-J                     ...    130
   Maximum angular momentum in Aux-J        ...      4
Auxiliary J/K fitting basis                 ... NOT available
Auxiliary Correlation fitting basis         ... NOT available
Auxiliary 'external' fitting basis          ... NOT available
Integral threshold                          ...     2.500000e-11
Primitive cut-off                           ...     2.500000e-12
Primitive pair pre-selection threshold      ...     2.500000e-12

Calculating pre-screening integrals         ... done (  0.0 sec) Dimension = 60
Organizing shell pair data                  ... done (  0.0 sec)
Shell pair information
Total number of shell pairs                 ...      1830
Shell pairs after pre-screening             ...      1785
Total number of primitive shell pairs       ...      6430
Primitive shell pairs kept                  ...      4799
          la=0 lb=0:    579 shell pairs
          la=1 lb=0:    660 shell pairs
          la=1 lb=1:    206 shell pairs
          la=2 lb=0:    200 shell pairs
          la=2 lb=1:    119 shell pairs
          la=2 lb=2:     21 shell pairs

Calculating one electron integrals          ... done (  0.0 sec)
Calculating RI/J V-Matrix + Cholesky decomp.... done (  0.0 sec)
Calculating Nuclear repulsion               ... done (  0.0 sec) ENN=    261.380598767298 Eh

SHARK setup successfully completed in   0.1 seconds

Maximum memory used throughout the entire GTOINT-calculation: 10.5 MB


           ************************************************************
           *        Program running with 6 parallel MPI-processes     *
           *              working on a common directory               *
           ************************************************************
-------------------------------------------------------------------------------
                                 ORCA SCF
-------------------------------------------------------------------------------

------------
SCF SETTINGS
------------
Hamiltonian:
 Density Functional     Method          .... DFT(GTOs)
 Exchange Functional    Exchange        .... B88
   X-Alpha parameter    XAlpha          ....  0.666667
   Becke's b parameter  XBeta           ....  0.004200
 Correlation Functional Correlation     .... LYP
 Gradients option       PostSCFGGA      .... off
   Density functional embedding theory  .... OFF
   NL short-range parameter             ....  4.000000
 RI-approximation to the Coulomb term is turned on
   Number of AuxJ basis functions       .... 382


General Settings:
 Integral files         IntName         .... sn2
 Hartree-Fock type      HFTyp           .... RHF
 Total Charge           Charge          ....    0
 Multiplicity           Mult            ....    1
 Number of Electrons    NEL             ....   50
 Basis Dimension        Dim             ....  124
 Nuclear Repulsion      ENuc            ....    261.3805987673 Eh

Convergence Acceleration:
 DIIS                   CNVDIIS         .... on
   Start iteration      DIISMaxIt       ....    12
   Startup error        DIISStart       ....  0.200000
   # of expansion vecs  DIISMaxEq       ....     5
   Bias factor          DIISBfac        ....   1.050
   Max. coefficient     DIISMaxC        ....  10.000
 Trust-Rad. Augm. Hess. CNVTRAH         .... auto
   Auto Start mean grad. ratio tolernc. ....  1.125000
   Auto Start start iteration           ....     1
   Auto Start num. interpolation iter.  ....    10
   Max. Number of Micro iterations      ....    16
   Max. Number of Macro iterations      .... Maxiter - #DIIS iter
   Number of Davidson start vectors     ....     2
   Converg. threshold I  (grad. norm)   ....   1.000e-05
   Converg. threshold II (energy diff.) ....   1.000e-08
   Grad. Scal. Fac. for Micro threshold ....   0.100
   Minimum threshold for Micro iter.    ....   0.010
   NR start threshold (gradient norm)   ....   0.001
   Initial trust radius                 ....   0.400
   Minimum AH scaling param. (alpha)    ....   1.000
   Maximum AH scaling param. (alpha)    .... 1000.000
   Orbital update algorithm             .... Taylor
   White noise on init. David. guess    .... on
   Maximum white noise                  ....   0.010
   Quad. conv. algorithm                .... NR
 SOSCF                  CNVSOSCF        .... on
   Start iteration      SOSCFMaxIt      ....   150
   Startup grad/error   SOSCFStart      ....  0.003300
 Level Shifting         CNVShift        .... on
   Level shift para.    LevelShift      ....    0.2500
   Turn off err/grad.   ShiftErr        ....    0.0010
 Zerner damping         CNVZerner       .... off
 Static damping         CNVDamp         .... on
   Fraction old density DampFac         ....    0.7000
   Max. Damping (<1)    DampMax         ....    0.9800
   Min. Damping (>=0)   DampMin         ....    0.0000
   Turn off err/grad.   DampErr         ....    0.1000
 Fernandez-Rico         CNVRico         .... off

SCF Procedure:
 Maximum # iterations   MaxIter         ....   125
 SCF integral mode      SCFMode         .... Direct
   Integral package                     .... SHARK and LIBINT hybrid scheme
 Reset frequency        DirectResetFreq ....    20
 Integral Threshold     Thresh          ....  2.500e-11 Eh
 Primitive CutOff       TCut            ....  2.500e-12 Eh

Convergence Tolerance:
 Convergence Check Mode ConvCheckMode   .... Total+1el-Energy
 Convergence forced     ConvForced      .... 0
 Energy Change          TolE            ....  1.000e-08 Eh
 1-El. energy change                    ....  1.000e-05 Eh
 Orbital Gradient       TolG            ....  1.000e-05
 Orbital Rotation angle TolX            ....  1.000e-05
 DIIS Error             TolErr          ....  5.000e-07


Diagonalization of the overlap matrix:
Smallest eigenvalue                        ... 2.767e-03
Time for diagonalization                   ...    0.002 sec
Threshold for overlap eigenvalues          ... 1.000e-08
Number of eigenvalues below threshold      ... 0
Time for construction of square roots      ...    0.001 sec
Total time needed                          ...    0.003 sec

---------------------
INITIAL GUESS: MOREAD
---------------------
Guess MOs are being read from file: sn2.gbw
Input Geometry matches current geometry (good)
Input basis set matches current basis set (good)
MOs were renormalized
MOs were reorthogonalized (Cholesky)
                      ------------------
                      INITIAL GUESS DONE (   0.0 sec)
                      ------------------
-------------------
DFT GRID GENERATION
-------------------

General Integration Accuracy     IntAcc      ... 4.388
Radial Grid Type                 RadialGrid  ... OptM3 with GC (2021)
Angular Grid (max. ang.)         AngularGrid ... 4 (Lebedev-302)
Angular grid pruning method      GridPruning ... 4 (adaptive)
Weight generation scheme         WeightScheme... Becke
Basis function cutoff            BFCut       ... 1.0000e-11
Integration weight cutoff        WCut        ... 1.0000e-14
Angular grids for H and He will be reduced by one unit
Partially contracted basis set               ... off
Rotationally invariant grid construction     ... off

Total number of grid points                  ...    62296
Total number of batches                      ...      980
Average number of points per batch           ...       63
Average number of grid points per atom       ...     4450
Time for grid setup =    0.294 sec

--------------
SCF ITERATIONS
--------------
ITER       Energy         Delta-E        Max-DP      RMS-DP      [F,P]     Damp
               ***  Starting incremental Fock matrix formation  ***
                      *** Initiating the SOSCF procedure ***
                      *** Re-Reading the Fockian *** 
                      *** Removing any level shift *** 
ITER      Energy       Delta-E        Grad      Rot      Max-DP    RMS-DP
  0   -344.39093209 -344.3909320899  0.000000  0.000000  0.000002  0.000000
               *** Restarting incremental Fock matrix formation ***
                  ***Gradient check signals convergence***
              ***Rediagonalizing the Fockian in SOSCF/NRSCF***

               *****************************************************
               *                     SUCCESS                       *
               *           SCF CONVERGED AFTER   1 CYCLES          *
               *****************************************************


----------------
TOTAL SCF ENERGY
----------------

Total Energy       :         -344.39093209 Eh           -9371.35369 eV

Components:
Nuclear Repulsion  :          261.38059877 Eh            7112.52769 eV
Electronic Energy  :         -605.77153086 Eh          -16483.88138 eV
One Electron Energy:         -988.89495007 Eh          -26909.19963 eV
Two Electron Energy:          383.12341921 Eh           10425.31825 eV

Virial components:
Potential Energy   :         -685.75368380 Eh          -18660.30641 eV
Kinetic Energy     :          341.36275171 Eh            9288.95272 eV
Virial Ratio       :            2.00887086


DFT components:
N(Alpha)           :       25.000063092787 electrons
N(Beta)            :       25.000063092787 electrons
N(Total)           :       50.000126185575 electrons
E(X)               :      -43.067087599461 Eh       
E(C)               :       -1.709193188315 Eh       
E(XC)              :      -44.776280787776 Eh       
DFET-embed. en.    :        0.000000000000 Eh       

---------------
SCF CONVERGENCE
---------------

  Last Energy change         ...   -6.2528e-13  Tolerance :   1.0000e-08
  Last MAX-Density change    ...    2.8760e-06  Tolerance :   1.0000e-07
  Last RMS-Density change    ...    7.5786e-08  Tolerance :   5.0000e-09
  Last Orbital Gradient      ...    3.5739e-07  Tolerance :   1.0000e-05
  Last Orbital Rotation      ...    6.8796e-07  Tolerance :   1.0000e-05

             **** THE GBW FILE WAS UPDATED (sn2.gbw) ****
             **** DENSITY sn2.scfp WAS UPDATED ****
             **** ENERGY FILE WAS UPDATED (sn2.en.tmp) ****
             **** THE GBW FILE WAS UPDATED (sn2.gbw) ****
             **** DENSITY sn2.scfp WAS UPDATED ****
----------------
ORBITAL ENERGIES
----------------

  NO   OCC          E(Eh)            E(eV) 
   0   2.0000     -18.793878      -511.4074 
   1   2.0000     -18.788911      -511.2723 
   2   2.0000     -18.776160      -510.9253 
   3   2.0000     -10.060232      -273.7528 
   4   2.0000      -9.966749      -271.2090 
   5   2.0000      -9.945016      -270.6176 
   6   2.0000      -0.966196       -26.2915 
   7   2.0000      -0.901627       -24.5345 
   8   2.0000      -0.859989       -23.4015 
   9   2.0000      -0.672332       -18.2951 
  10   2.0000      -0.590382       -16.0651 
  11   2.0000      -0.492030       -13.3888 
  12   2.0000      -0.451911       -12.2971 
  13   2.0000      -0.420873       -11.4525 
  14   2.0000      -0.401763       -10.9325 
  15   2.0000      -0.397433       -10.8147 
  16   2.0000      -0.376109       -10.2345 
  17   2.0000      -0.373066       -10.1517 
  18   2.0000      -0.353674        -9.6240 
  19   2.0000      -0.339643        -9.2422 
  20   2.0000      -0.316188        -8.6039 
  21   2.0000      -0.301346        -8.2000 
  22   2.0000      -0.243411        -6.6236 
  23   2.0000      -0.230026        -6.2593 
  24   2.0000      -0.216871        -5.9014 
  25   0.0000      -0.005617        -0.1528 
  26   0.0000       0.001610         0.0438 
  27   0.0000       0.028152         0.7661 
  28   0.0000       0.063672         1.7326 
  29   0.0000       0.065436         1.7806 
  30   0.0000       0.100803         2.7430 
  31   0.0000       0.108417         2.9502 
  32   0.0000       0.111431         3.0322 
  33   0.0000       0.116568         3.1720 
  34   0.0000       0.139462         3.7950 
  35   0.0000       0.192294         5.2326 
  36   0.0000       0.203005         5.5240 
  37   0.0000       0.242336         6.5943 
  38   0.0000       0.392189        10.6720 
  39   0.0000       0.419074        11.4036 
  40   0.0000       0.427297        11.6274 
  41   0.0000       0.432438        11.7672 
  42   0.0000       0.441604        12.0167 
  43   0.0000       0.469218        12.7681 
  44   0.0000       0.511694        13.9239 
  45   0.0000       0.540749        14.7145 
  46   0.0000       0.545680        14.8487 
  47   0.0000       0.563812        15.3421 
  48   0.0000       0.590343        16.0641 
  49   0.0000       0.595549        16.2057 
  50   0.0000       0.597434        16.2570 
  51   0.0000       0.599712        16.3190 
  52   0.0000       0.611730        16.6460 
  53   0.0000       0.620477        16.8840 
  54   0.0000       0.631014        17.1708 
  55   0.0000       0.684187        18.6177 
  56   0.0000       0.730508        19.8781 
  57   0.0000       0.829879        22.5822 
  58   0.0000       0.842384        22.9224 
  59   0.0000       0.903143        24.5758 
  60   0.0000       0.935788        25.4641 
  61   0.0000       0.968812        26.3627 
  62   0.0000       1.005261        27.3545 
  63   0.0000       1.036464        28.2036 
  64   0.0000       1.048929        28.5428 
  65   0.0000       1.092744        29.7351 
  66   0.0000       1.095593        29.8126 
  67   0.0000       1.205065        32.7915 
  68   0.0000       1.241325        33.7782 
  69   0.0000       1.253655        34.1137 
  70   0.0000       1.295148        35.2428 
  71   0.0000       1.351544        36.7774 
  72   0.0000       1.399654        38.0865 
  73   0.0000       1.429114        38.8882 
  74   0.0000       1.460628        39.7457 
  75   0.0000       1.469909        39.9983 
  76   0.0000       1.490896        40.5694 
  77   0.0000       1.545554        42.0567 
  78   0.0000       1.582770        43.0694 
  79   0.0000       1.620034        44.0834 
  80   0.0000       1.639442        44.6115 
  81   0.0000       1.686398        45.8892 
  82   0.0000       1.691831        46.0371 
  83   0.0000       1.699546        46.2470 
  84   0.0000       1.724119        46.9157 
  85   0.0000       1.730723        47.0954 
  86   0.0000       1.783124        48.5213 
  87   0.0000       1.789097        48.6838 
  88   0.0000       1.833817        49.9007 
  89   0.0000       1.855855        50.5004 
  90   0.0000       1.880569        51.1729 
  91   0.0000       1.965350        53.4799 
  92   0.0000       1.982474        53.9459 
  93   0.0000       2.064261        56.1714 
  94   0.0000       2.089069        56.8465 
  95   0.0000       2.127320        57.8873 
  96   0.0000       2.172924        59.1283 
  97   0.0000       2.233541        60.7777 
  98   0.0000       2.262193        61.5574 
  99   0.0000       2.288652        62.2774 
 100   0.0000       2.325566        63.2819 
 101   0.0000       2.405322        65.4521 
 102   0.0000       2.535838        69.0037 
 103   0.0000       2.542425        69.1829 
 104   0.0000       2.562994        69.7426 
 105   0.0000       2.591219        70.5107 
 106   0.0000       2.619767        71.2875 
 107   0.0000       2.645249        71.9809 
 108   0.0000       2.720129        74.0185 
 109   0.0000       2.746039        74.7235 
 110   0.0000       2.797128        76.1137 
 111   0.0000       2.811868        76.5148 
 112   0.0000       2.854570        77.6768 
 113   0.0000       2.877960        78.3133 
 114   0.0000       2.897851        78.8545 
 115   0.0000       2.960093        80.5482 
 116   0.0000       2.985652        81.2437 
 117   0.0000       3.131558        85.2140 
 118   0.0000       3.212688        87.4217 
 119   0.0000       3.221860        87.6713 
 120   0.0000       3.266480        88.8855 
 121   0.0000       3.521278        95.8188 
 122   0.0000       3.544602        96.4535 
 123   0.0000       3.746529       101.9482 
-------
TIMINGS
-------

Total SCF time: 0 days 0 hours 0 min 0 sec 

Total time                  ....       0.704 sec
Sum of individual times     ....       0.598 sec  ( 85.0%)

Fock matrix formation       ....       0.278 sec  ( 39.5%)
  Split-RI-J                ....       0.089 sec  ( 32.1% of F)
  XC integration            ....       0.190 sec  ( 68.2% of F)
    Basis function eval.    ....       0.081 sec  ( 42.9% of XC)
    Density eval.           ....       0.034 sec  ( 18.1% of XC)
    XC-Functional eval.     ....       0.009 sec  (  4.6% of XC)
    XC-Potential eval.      ....       0.025 sec  ( 13.3% of XC)
Diagonalization             ....       0.003 sec  (  0.5%)
Density matrix formation    ....       0.001 sec  (  0.1%)
Population analysis         ....       0.000 sec  (  0.0%)
Initial guess               ....       0.004 sec  (  0.6%)
Orbital Transformation      ....       0.000 sec  (  0.0%)
Orbital Orthonormalization  ....       0.002 sec  (  0.3%)
DIIS solution               ....       0.002 sec  (  0.3%)
SOSCF solution              ....       0.015 sec  (  2.1%)
Grid generation             ....       0.294 sec  ( 41.8%)

Maximum memory used throughout the entire SCF-calculation: 17.5 MB


-------------------------------------------------------------------------------
                          DFT DISPERSION CORRECTION                            
                                                                               
                              DFTD3 V3.1  Rev 1                                
                          USING Becke-Johnson damping                          
-------------------------------------------------------------------------------
The BLYP functional is recognized
Active option DFTDOPT                   ...         4   

molecular C6(AA) [au] = 1403.813116 


            DFT-D V3
 parameters
 s6 scaling factor         :     1.0000 
 a1 scaling factor         :     0.4298 
 s8 scaling factor         :     2.6996 
 a2 scaling factor         :     4.2359 
 ad hoc parameters k1-k3   :    16.0000     1.3333    -4.0000 

 Edisp/kcal,au: -12.310412643132  -0.019617889193 
 E6   /kcal   :  -5.163502210 
 E8   /kcal   :  -7.146910433 
 % E8         :  58.055815353 

-------------------------   ----------------
Dispersion correction           -0.019617889
-------------------------   ----------------


-------------------------   --------------------
FINAL SINGLE POINT ENERGY      -344.410549979050
-------------------------   --------------------



           ************************************************************
           *        Program running with 6 parallel MPI-processes     *
           *              working on a common directory               *
           ************************************************************
------------------------------------------------------------------------------
                         ORCA SCF GRADIENT CALCULATION
------------------------------------------------------------------------------

Gradient of the Kohn-Sham DFT energy:
Kohn-Sham wavefunction type      ... RKS
Hartree-Fock exchange scaling    ...    0.000
Number of operators              ...    1
Number of atoms                  ...   14
Basis set dimensions             ...  124
Integral neglect threshold       ... 2.5e-11
Integral primitive cutoff        ... 2.5e-12
SHARK Integral package           ... ON

Nuc. rep. gradient       (SHARK) ... done (  0.0 sec)
HCore & Overlap gradient (SHARK) ... done (  0.0 sec)
RI-J gradient            (SHARK) ... done (  0.2 sec)
Exchange-correlation gradient    ... done
Dispersion correction            ... done

------------------
CARTESIAN GRADIENT
------------------

   1   C   :   -0.000395054   -0.000355255    0.000065923
   2   C   :    0.000508712    0.001785477   -0.001064135
   3   H   :    0.001045004   -0.000203388    0.000116826
   4   H   :    0.000102734   -0.000609008   -0.000359465
   5   H   :   -0.000798562   -0.000499846    0.000858858
   6   O   :   -0.001240477    0.000595341   -0.000712982
   7   C   :    0.000101066   -0.000463787    0.000105635
   8   H   :    0.001661111   -0.000423060   -0.000264006
   9   H   :    0.000592205   -0.001110120    0.000344300
  10   H   :   -0.000049429   -0.000280476    0.000977531
  11   O   :   -0.001979885    0.001158709   -0.000034250
  12   O   :   -0.000040982    0.000549924    0.000494020
  13   H   :    0.000533287    0.000056525   -0.000037702
  14   H   :   -0.000039732   -0.000201036   -0.000490553

Difference to translation invariance:
           :   -0.0000000000   -0.0000000000   -0.0000000000

Difference to rotation invariance:
           :   -0.0000769639    0.0000913723   -0.0000089930

Norm of the cartesian gradient     ...    0.0047871102
RMS gradient                       ...    0.0007386671
MAX gradient                       ...    0.0019798847

-------
TIMINGS
-------

Total SCF gradient time            ...        1.125 sec

One electron gradient       ....       0.029 sec  (  2.6%)
RI-J Coulomb gradient       ....       0.177 sec  ( 15.7%)
XC gradient                 ....       0.713 sec  ( 63.3%)

Maximum memory used throughout the entire SCFGRAD-calculation: 27.2 MB
------------------------------------------------------------------------------
                         ORCA GEOMETRY RELAXATION STEP
------------------------------------------------------------------------------

Reading the OPT-File                    .... done
Getting information on internals        .... done
Copying old internal coords+grads       .... done
Making the new internal coordinates     .... (new redundants).... done
Validating the new internal coordinates .... (new redundants).... done
Calculating the B-matrix                .... done
Calculating the G,G- and P matrices     .... done
Transforming gradient to internals      .... done
Projecting the internal gradient        .... done
Number of atoms                         ....  14
Number of internal coordinates          ....  71
Current Energy                          ....  -344.410549979 Eh
Current gradient norm                   ....     0.004787110 Eh/bohr
Maximum allowed component of the step   ....  0.300
Current trust radius                    ....  0.100
Evaluating the initial hessian          ....  (read) 
(Reading Exact Hessian)...  
InHessName: sn2.appr.hess	The file <sn2.appr.hess> is opened as a .hess file
done
done
Diagonalizing the Hessian               .... done
Dimension of the hessian                .... 71
Lowest eigenvalues of the non projected Hessian:
 -0.031983929 -0.000000000 -0.000000000 -0.000000000 -0.000000000
done
Projecting the Hessian                  .... done
Diagonalizing the Hessian               .... done
Dimension of the hessian                ....  71
Lowest eigenvalues of the Hessian:
 -0.031983929  0.013528808  0.020125075  0.021560387  0.047806270
Hessian has   1 negative eigenvalues
Taking P-RFO step
Searching for lambda that maximizes along the lowest mode
TS mode is mode number   0 with eigenvalue  -0.03198393 and components:
   1.   -0.00545004
   2.   -0.00261943
   3.    0.00503390
   4.   -0.00159970
   5.   -0.41997268
   6.    0.00741021
   7.   -0.00961684
   8.    0.00225750
   9.    0.00275185
  10.    0.00143717
  11.    0.03353707
  12.    0.45106317
  13.   -0.00361556
  14.   -0.45317784
  15.    0.47612018
  16.    0.00043750
  17.    0.05722415
  18.   -0.01232489
  19.    0.00047616
  20.   -0.00041642
  21.   -0.04626799
  22.    0.04388549
  23.   -0.06618946
  24.    0.00319303
  25.    0.00619073
  26.   -0.03918743
  27.    0.05737659
  28.   -0.00346550
  29.    0.07726268
  30.    0.01103163
  31.   -0.00558873
  32.   -0.00097729
  33.    0.00493347
  34.    0.00867834
  35.    0.01579385
  36.   -0.02255752
  37.   -0.00475625
  38.   -0.09448049
  39.   -0.07080412
  40.    0.01247960
  41.    0.15679465
  42.   -0.04345920
  43.   -0.03774246
  44.   -0.06217809
  45.    0.16251138
  46.   -0.07221701
  47.    0.12803684
  48.   -0.03342029
  49.   -0.02770355
  50.   -0.05418204
  51.   -0.00575583
  52.   -0.08071673
  53.    0.06963106
  54.    0.02077886
  55.    0.04309637
  56.   -0.07090453
  57.    0.02608040
  58.   -0.06497614
  59.    0.03200879
  60.   -0.05815211
  61.    0.03883282
  62.    0.01024328
  63.    0.06551038
  64.   -0.05463443
  65.    0.01483949
  66.   -0.05923064
  67.    0.07010660
  68.    0.12446928
  69.    0.02482213
  70.    0.05081883
  71.    0.00538495

Lambda that maximizes along the TS mode:       0.00000608
Searching for lambda that minimizes along all other modes
In cycle   1: lambdaN =  -0.00093615   step =   0.00093615
In cycle   2: lambdaN =  -0.00093634   step =   0.00000020
In cycle   3: lambdaN =  -0.00093634   step =   0.00000000
Lambda that minimizes along all other modes:  -0.00093634
The final length of the internal step   ....       0.0998
Converting the step to cartesian space:
 Initial RMS(Int)=    0.0118394007
Transforming coordinates:
 Iter   0:  RMS(Cart)=    0.0380064000 RMS(Int)=    0.0118302690
 Iter   1:  RMS(Cart)=    0.0008628152 RMS(Int)=    0.0004906476
 Iter   2:  RMS(Cart)=    0.0000307248 RMS(Int)=    0.0000116659
 Iter   3:  RMS(Cart)=    0.0000014063 RMS(Int)=    0.0000008468
 Iter   4:  RMS(Cart)=    0.0000000491 RMS(Int)=    0.0000000219
done
Storing new coordinates                 .... done

                                .--------------------.
          ----------------------|Geometry convergence|-------------------------
          Item                value                   Tolerance       Converged
          ---------------------------------------------------------------------
          RMS gradient        0.0014180323            0.0001000000      NO
          MAX gradient        0.0057235684            0.0003000000      NO
          RMS step            0.0118394007            0.0020000000      NO
          MAX step            0.0360640542            0.0040000000      NO
          ........................................................
          Max(Bonds)      0.0097      Max(Angles)    2.07
          Max(Dihed)        2.00      Max(Improp)    0.00
          ---------------------------------------------------------------------

The optimization has not yet converged - more geometry cycles are needed


    ---------------------------------------------------------------------------
                         Redundant Internal Coordinates
                            (Angstroem and degrees)

        Definition                    Value    dE/dq     Step     New-Value  comp.(TS mode)
    ----------------------------------------------------------------------------
     1. B(C   1,C   0)                1.5035  0.001051 -0.0014    1.5022   
     2. B(H   2,C   0)                1.1017  0.000337 -0.0005    1.1012   
     3. B(H   3,C   0)                1.1085  0.000663 -0.0012    1.1073   
     4. B(H   4,C   0)                1.1078  0.000336 -0.0003    1.1075   
     5. B(O   5,C   1)                1.8580  0.002221 -0.0010    1.8570          0.42
     6. B(C   6,O   5)                1.4203  0.001741 -0.0017    1.4185   
     7. B(H   7,C   6)                1.1164  0.000107 -0.0003    1.1161   
     8. B(H   8,C   6)                1.1133  0.000969 -0.0017    1.1116   
     9. B(H   9,C   6)                1.1134  0.000524 -0.0005    1.1129   
    10. B(O  10,C   1)                1.1943  0.000008  0.0000    1.1943   
    11. B(O  11,O   5)                2.3020  0.000689 -0.0032    2.2989   
    12. B(O  11,C   1)                1.8461 -0.000579 -0.0097    1.8364          0.45
    13. B(H  12,O  11)                0.9813  0.000332 -0.0003    0.9809   
    14. B(H  13,O  11)                1.1972 -0.000376  0.0029    1.2001          0.45
    15. B(H  13,O   5)                1.2467  0.000055 -0.0045    1.2422          0.48
    16. A(H   2,C   0,H   3)          109.46  0.000314    0.12    109.58   
    17. A(C   1,C   0,H   4)          110.00  0.002098   -0.37    109.63   
    18. A(C   1,C   0,H   2)          110.15 -0.001783    0.37    110.52   
    19. A(H   3,C   0,H   4)          109.38 -0.000291   -0.10    109.28   
    20. A(H   2,C   0,H   4)          109.95 -0.000137    0.01    109.96   
    21. A(C   1,C   0,H   3)          107.86 -0.000200   -0.02    107.84   
    22. A(C   0,C   1,O   5)           99.27 -0.002536    1.36    100.63   
    23. A(O  10,C   1,O  11)          113.95 -0.000345    0.09    114.04   
    24. A(C   0,C   1,O  10)          133.27  0.000488   -0.12    133.15   
    25. A(O   5,C   1,O  11)           76.85 -0.000124    0.14     76.98   
    26. A(C   0,C   1,O  11)          102.44  0.000152   -0.28    102.16   
    27. A(O   5,C   1,O  10)          116.32  0.001969   -1.01    115.31   
    28. A(C   6,O   5,H  13)          117.46  0.001000   -0.14    117.32   
    29. A(C   1,O   5,H  13)           70.27 -0.001057   -0.10     70.17   
    30. A(C   1,O   5,C   6)          117.58  0.005724   -2.07    115.52   
    31. A(H   8,C   6,H   9)          107.79 -0.000274    0.25    108.04   
    32. A(H   7,C   6,H   9)          108.19 -0.000423    0.04    108.22   
    33. A(O   5,C   6,H   9)          109.95 -0.001840    0.48    110.43   
    34. A(H   7,C   6,H   8)          108.28 -0.000569   -0.06    108.23   
    35. A(O   5,C   6,H   8)          110.32 -0.000083   -0.03    110.29   
    36. A(O   5,C   6,H   7)          112.18  0.003080   -0.65    111.53   
    37. A(H  12,O  11,H  13)          106.32  0.001271    0.20    106.52   
    38. A(C   1,O  11,H  13)           71.55 -0.000013    0.13     71.67   
    39. A(C   1,O  11,H  12)          101.05  0.000298   -0.17    100.87   
    40. A(O   5,H  13,O  11)          140.75  0.001279   -0.23    140.53   
    41. D(O  10,C   1,C   0,H   4)    -66.34 -0.000405    0.98    -65.36   
    42. D(O  11,C   1,C   0,H   4)     74.80 -0.000098    0.47     75.27   
    43. D(O  11,C   1,C   0,H   3)   -165.98  0.000633    0.13   -165.85   
    44. D(O   5,C   1,C   0,H   2)     31.89 -0.000731    0.84     32.73   
    45. D(O  10,C   1,C   0,H   3)     52.88  0.000326    0.63     53.51   
    46. D(O  11,C   1,C   0,H   2)    -46.56 -0.000136    0.47    -46.10   
    47. D(O  10,C   1,C   0,H   2)    172.30 -0.000442    0.97    173.27   
    48. D(O   5,C   1,C   0,H   4)    153.25 -0.000694    0.84    154.10   
    49. D(O   5,C   1,C   0,H   3)    -87.52  0.000037    0.49    -87.03   
    50. D(H  13,O   5,C   1,O  10)    106.66 -0.000243   -0.01    106.64   
    51. D(C   6,O   5,C   1,O  11)   -115.24  0.000658   -0.41   -115.64   
    52. D(C   6,O   5,C   1,O  10)     -4.77  0.000091   -0.19     -4.96   
    53. D(H  13,O   5,C   1,C   0)   -104.52 -0.000343    0.32   -104.21   
    54. D(H  13,O   5,C   1,O  11)     -3.80  0.000324   -0.24     -4.04   
    55. D(C   6,O   5,C   1,C   0)    144.05 -0.000009    0.15    144.19   
    56. D(H   9,C   6,O   5,H  13)     51.10 -0.000273    0.42     51.52   
    57. D(H   9,C   6,O   5,C   1)    132.02  0.001426   -0.68    131.35   
    58. D(H   8,C   6,O   5,H  13)    169.85 -0.001805    1.01    170.86   
    59. D(H   8,C   6,O   5,C   1)   -109.23 -0.000106   -0.09   -109.31   
    60. D(H   7,C   6,O   5,H  13)    -69.34 -0.000510    0.48    -68.86   
    61. D(H   7,C   6,O   5,C   1)     11.59  0.001189   -0.62     10.97   
    62. D(H  13,O  11,C   1,O   5)      3.93 -0.000348    0.21      4.15   
    63. D(H  13,O  11,C   1,C   0)    100.70 -0.003055    1.72    102.42   
    64. D(H  12,O  11,C   1,O  10)     -5.61 -0.001222    1.55     -4.06   
    65. D(H  12,O  11,C   1,O   5)    107.62  0.000911    0.49    108.11   
    66. D(H  13,O  11,C   1,O  10)   -109.30 -0.002481    1.27   -108.02   
    67. D(H  12,O  11,C   1,C   0)   -155.61 -0.001795    2.00   -153.61   
    68. D(O   5,H  13,O  11,H  12)   -105.52  0.000529   -0.27   -105.79   
    69. D(O   5,H  13,O  11,C   1)     -9.05  0.000465   -0.49     -9.53   
    70. D(O  11,H  13,O   5,C   6)    120.65  0.005378   -1.92    118.73   
    71. D(O  11,H  13,O   5,C   1)      9.06 -0.000533    0.46      9.51   
    ----------------------------------------------------------------------------

         *************************************************************
         *                GEOMETRY OPTIMIZATION CYCLE   2            *
         *************************************************************
---------------------------------
CARTESIAN COORDINATES (ANGSTROEM)
---------------------------------
  C     -1.909289   -0.262423    0.015392
  C     -0.653959    0.445710   -0.408007
  H     -1.787594   -0.696339    1.020135
  H     -2.106333   -1.069929   -0.716141
  H     -2.757536    0.449576    0.011281
  O      0.630000   -0.603995    0.427504
  C      1.840636   -0.776467   -0.291390
  H      1.899193   -0.086202   -1.166491
  H      1.921334   -1.820032   -0.665757
  H      2.715292   -0.578091    0.367533
  O     -0.309443    0.955604   -1.431525
  O     -0.235080    1.419864    1.091236
  H      0.268372    2.162520    0.694685
  H      0.484408    0.460203    1.051544

----------------------------
CARTESIAN COORDINATES (A.U.)
----------------------------
  NO LB      ZA    FRAG     MASS         X           Y           Z
   0 C     6.0000    0    12.011   -3.608033   -0.495907    0.029087
   1 C     6.0000    0    12.011   -1.235803    0.842270   -0.771021
   2 H     1.0000    0     1.008   -3.378064   -1.315891    1.927776
   3 H     1.0000    0     1.008   -3.980393   -2.021872   -1.353311
   4 H     1.0000    0     1.008   -5.210988    0.849575    0.021319
   5 O     8.0000    0    15.999    1.190527   -1.141384    0.807866
   6 C     6.0000    0    12.011    3.478298   -1.467310   -0.550648
   7 H     1.0000    0     1.008    3.588955   -0.162898   -2.204348
   8 H     1.0000    0     1.008    3.630795   -3.439361   -1.258099
   9 H     1.0000    0     1.008    5.131158   -1.092434    0.694537
  10 O     8.0000    0    15.999   -0.584763    1.805829   -2.705190
  11 O     8.0000    0    15.999   -0.444237    2.683153    2.062138
  12 H     1.0000    0     1.008    0.507150    4.086571    1.312764
  13 H     1.0000    0     1.008    0.915399    0.869658    1.987130

--------------------------------
INTERNAL COORDINATES (ANGSTROEM)
--------------------------------
 C      0   0   0     0.000000000000     0.00000000     0.00000000
 C      1   0   0     1.502188989993     0.00000000     0.00000000
 H      1   2   0     1.101182022867   110.52234409     0.00000000
 H      1   2   3     1.107263945547   107.83538364   240.24346271
 H      1   2   3     1.107466608529   109.63054434   121.36649175
 O      2   1   3     1.857016154867   100.63254290    32.72550667
 C      6   2   1     1.418519218747   115.51805202   144.18493689
 H      7   6   2     1.116107418350   111.52696202    10.96964240
 H      7   6   2     1.111615953252   110.29019534   250.68737856
 H      7   6   2     1.112904340997   110.42699015   131.34556000
[...]
      9      -0.036969   0.038151   0.558489  -0.373434   0.193455   0.019048
     10      -0.005082   0.024617   0.003195   0.302764   0.100298  -0.298056
     11       0.006699  -0.023410  -0.214847  -0.269659  -0.207286   0.389414
     12       0.005699   0.002903   0.365345  -0.114810  -0.083666   0.167263
     13       0.001952  -0.003130   0.482387  -0.221479  -0.059089   0.200595
     14       0.006452  -0.031702  -0.052062  -0.503730   0.470516  -0.111298
     15       0.028361  -0.017253   0.000162   0.009057   0.012732   0.010170
     16      -0.011715   0.073566  -0.001349  -0.003674   0.000382   0.001398
     17       0.063481   0.016201   0.000089  -0.008203  -0.005985  -0.006998
     18      -0.071696   0.009297   0.000392   0.030229   0.043087   0.040261
     19       0.012480  -0.141698   0.003027   0.011224   0.012747   0.019477
     20      -0.128474  -0.013353  -0.002542  -0.015121  -0.024442  -0.022430
     21       0.527596  -0.306266  -0.026198  -0.314127  -0.445877  -0.465244
     22       0.021724   0.276436   0.000953   0.014040   0.035536  -0.005791
     23      -0.119576   0.324024  -0.001925  -0.000030   0.012482  -0.023278
     24       0.307418   0.578705   0.002337  -0.057202  -0.068269  -0.001439
     25      -0.081065   0.061110  -0.004161  -0.038185  -0.059988  -0.044725
     26       0.217758  -0.429110   0.016727   0.093964   0.139201   0.122258
     27      -0.518443  -0.176812  -0.011290  -0.097041  -0.135926  -0.121792
     28       0.000790   0.330240  -0.022334  -0.137058  -0.192804  -0.263541
     29       0.504328   0.067396   0.022227   0.208582   0.289980   0.297854
     30       0.000538   0.000841   0.003370  -0.002281   0.002946   0.005401
     31       0.004282   0.004817   0.006026  -0.002495   0.005335  -0.000653
     32      -0.011619   0.001754  -0.015346   0.001027  -0.004637  -0.006443
     33      -0.006526  -0.006960  -0.001648  -0.002068   0.000438   0.002198
     34       0.000262   0.001757  -0.001465  -0.000106  -0.002807  -0.004110
     35       0.003655   0.001154   0.000745  -0.000766  -0.001129   0.000896
     36       0.039090   0.075417   0.001794   0.013317   0.009350   0.000988
     37      -0.033046  -0.036078  -0.009908  -0.007144  -0.006627  -0.002429
     38      -0.004675   0.032049  -0.010335   0.004427   0.003871   0.000119
     39       0.047395   0.113403   0.012017   0.019201  -0.011536  -0.015444
     40       0.035884  -0.038644   0.013655   0.045572   0.047934   0.067090
     41      -0.009742  -0.057230  -0.001883   0.011105  -0.025717  -0.012824
                 30         31         32         33         34         35    
      0       0.002055   0.000866  -0.003882   0.009840   0.047120   0.000412
      1      -0.000077   0.001158  -0.002694   0.005753   0.030299  -0.000526
      2      -0.001334   0.000730  -0.002586  -0.003371  -0.035361   0.000220
      3      -0.014449  -0.005141   0.029669  -0.053364  -0.231229  -0.001773
      4       0.010930  -0.000226   0.013245  -0.034890  -0.250902   0.002376
      5       0.006394  -0.001062   0.019776   0.028102   0.469634  -0.001732
      6       0.001103   0.005576  -0.011928  -0.007201   0.149741  -0.000668
      7      -0.043630  -0.008624  -0.007399  -0.000742   0.068704   0.001048
      8      -0.016092  -0.002906  -0.003302  -0.004897  -0.014577  -0.002962
      9      -0.002801  -0.004566  -0.024590   0.014057  -0.046273  -0.000012
     10      -0.031653  -0.000495  -0.014033  -0.001488   0.020051   0.000725
     11       0.039242   0.003968   0.016742   0.004990   0.016457   0.000697
     12       0.035536   0.001880  -0.010218   0.008172  -0.004697  -0.001457
     13       0.036508   0.000130  -0.006974   0.004674  -0.038480   0.002613
     14      -0.015924  -0.011202   0.008803   0.008706  -0.013119  -0.000089
     15       0.015905  -0.001440  -0.024381  -0.010994   0.021844   0.003984
     16      -0.013106   0.001022  -0.016289  -0.025625   0.010106  -0.001190
     17      -0.004799  -0.012567   0.012623  -0.019899  -0.000213  -0.002307
     18       0.056740  -0.028333   0.002457  -0.001512  -0.011752   0.029995
     19      -0.049303  -0.011159   0.009456   0.008934  -0.004745   0.012587
     20      -0.028372  -0.045621   0.005292   0.009763   0.012158  -0.034475
     21       0.047229   0.016649   0.025309   0.013599   0.097089   0.013378
     22       0.265325   0.501867   0.073310  -0.003533  -0.046667  -0.472633
     23       0.210226   0.382108   0.058658  -0.003139  -0.003451   0.585588
     24      -0.656846   0.192025  -0.046594  -0.043987   0.065266  -0.029060
     25      -0.123519  -0.213022  -0.017956   0.003620   0.026625   0.417293
     26       0.085248   0.590737   0.096792   0.020506  -0.041078   0.144978
     27      -0.224287   0.209536   0.071399   0.013337   0.046710  -0.381815
     28       0.583366  -0.164557   0.009984   0.013671  -0.011201  -0.098253
     29       0.122416  -0.277573  -0.080615  -0.013954  -0.071660  -0.281790
     30       0.002319   0.000180  -0.002669   0.015796   0.117579  -0.000347
     31      -0.000583  -0.000948  -0.000803   0.019013   0.151355  -0.000535
     32      -0.004411  -0.000219  -0.005329  -0.036858  -0.312226   0.001000
     33       0.004450   0.004816  -0.029309  -0.030363   0.023965   0.000461
     34      -0.003817   0.001891  -0.016180   0.013507   0.007099  -0.000692
     35      -0.002566  -0.002282   0.016416  -0.002392  -0.001857  -0.000310
     36      -0.017238  -0.037298   0.241081   0.108783  -0.005511  -0.000086
     37       0.009663   0.026146  -0.182083  -0.051274   0.095167  -0.001312
     38      -0.001220  -0.006645   0.021773   0.019352   0.131671   0.000815
     39      -0.071001  -0.051689   0.313530   0.835600  -0.561807  -0.006511
     40       0.039952  -0.050764   0.434836   0.166375  -0.104402   0.016868
     41       0.040786   0.108226  -0.763078   0.496214  -0.335251   0.007236
                 36         37         38         39         40         41    
      0      -0.001216   0.047653   0.000852   0.033563   0.021761   0.000147
      1      -0.000449   0.015794   0.000478  -0.081964  -0.021427   0.000059
      2       0.000001   0.006008   0.000054  -0.028574   0.087934   0.000213
      3       0.000305  -0.000783   0.000048   0.000841   0.000824  -0.000222
      4       0.000035  -0.000601   0.000203  -0.001876  -0.000232  -0.000409
      5      -0.000203   0.000615   0.000366  -0.000732   0.002048  -0.001079
      6      -0.000248   0.024951   0.000640   0.005057  -0.039725   0.000741
      7       0.004087  -0.129751  -0.002898  -0.006638   0.302529   0.001294
      8      -0.012319   0.378712   0.008497  -0.027832  -0.864890  -0.001313
      9       0.002474  -0.088161  -0.002215   0.113718  -0.039707   0.000910
     10       0.012768  -0.486989  -0.010372   0.542169  -0.225934   0.000757
     11       0.010392  -0.394388  -0.008370   0.447395  -0.170451  -0.000354
     12       0.012081  -0.489935  -0.008584  -0.523790  -0.195815  -0.000326
     13      -0.011548   0.437153   0.007398   0.451042   0.173002   0.000489
     14       0.001762  -0.062961  -0.001184  -0.074961  -0.014804  -0.000007
     15      -0.000166  -0.000158  -0.000701  -0.000269   0.000049  -0.000080
     16      -0.000042   0.000061  -0.000863   0.000391   0.000059   0.000626
     17       0.000309  -0.000123  -0.000209  -0.000083  -0.000305   0.000297
     18      -0.042830  -0.001720   0.035920  -0.000063   0.000005   0.000181
     19       0.056660   0.000082   0.073914   0.000116  -0.000039  -0.000088
     20      -0.057597  -0.002245   0.047410   0.000309   0.000386  -0.000174
     21       0.008207   0.000142   0.010991   0.000030   0.000135   0.000228
     22      -0.401836  -0.009938  -0.017981   0.001499   0.002691  -0.000178
     23       0.496585   0.011484   0.053832  -0.001971  -0.003209   0.000429
     24       0.018374  -0.000423   0.057780   0.000155   0.000169  -0.000707
     25      -0.417073   0.003008  -0.733880  -0.002366  -0.001297   0.000948
     26      -0.165872   0.000397  -0.250440  -0.000947  -0.000489   0.000359
     27       0.484489   0.021687  -0.488085   0.000314  -0.000010  -0.000453
     28       0.146783   0.005654  -0.116637  -0.000058  -0.000063  -0.000012
     29       0.353026   0.015325  -0.361595  -0.000284  -0.000532  -0.000228
     30      -0.000206  -0.000133  -0.000057  -0.000070   0.000360  -0.000045
     31       0.000002  -0.000097   0.000030   0.000212   0.000348  -0.000102
     32       0.000166   0.000163  -0.000163   0.000087  -0.000812   0.000545
     33      -0.000235  -0.000126  -0.000098  -0.000028   0.000037  -0.031022
     34       0.000207  -0.000014  -0.000062   0.000422   0.000182  -0.048176
     35      -0.000006  -0.000117   0.000053   0.000317  -0.000382   0.024958
     36       0.000393   0.000756   0.001177  -0.000598  -0.000047   0.505909
     37       0.000160   0.000336  -0.000092  -0.000257  -0.001268   0.762968
     38      -0.000646   0.000499  -0.000067   0.000093   0.001069  -0.397268
     39       0.005067  -0.000383   0.003133   0.001745  -0.001275  -0.013202
     40      -0.006195  -0.000693  -0.000192  -0.004026  -0.000458  -0.004713
     41      -0.001649  -0.000018  -0.005556  -0.001072   0.000306   0.001270


-----------
IR SPECTRUM
-----------

 Mode   freq       eps      Int      T**2         TX        TY        TZ
       cm**-1   L/(mol*cm) km/mol    a.u.
----------------------------------------------------------------------------
  7:    107.24   0.000107    0.54  0.000312  ( 0.011367 -0.012903 -0.004078)
  8:    129.82   0.000060    0.31  0.000145  ( 0.003465  0.008880  0.007368)
  9:    175.95   0.000228    1.15  0.000405  (-0.010134  0.017166  0.002737)
 10:    223.76   0.000225    1.14  0.000314  ( 0.003493 -0.015358  0.008139)
 11:    274.12   0.000135    0.68  0.000154  (-0.004219 -0.010128 -0.005810)
 12:    325.10   0.004273   21.60  0.004102  (-0.045779  0.006119 -0.044371)
 13:    377.25   0.004373   22.10  0.003617  ( 0.012485 -0.036015 -0.046519)
 14:    433.76   0.024323  122.92  0.017499  (-0.092679  0.093327 -0.014134)
 15:    518.91   0.026130  132.05  0.015714  (-0.089128 -0.024917 -0.084554)
 16:    583.83   0.004021   20.32  0.002149  (-0.035979  0.001069 -0.029219)
 17:    628.60   0.003399   17.17  0.001687  ( 0.001162 -0.020975  0.035297)
 18:    726.29   0.139823  706.61  0.060077  (-0.092349  0.204493  0.098650)
 19:    833.51   0.017587   88.88  0.006585  ( 0.066339 -0.036046  0.029738)
 20:    960.66   0.012094   61.12  0.003929  (-0.056987  0.008839 -0.024555)
 21:   1014.86   0.044451  224.64  0.013668  (-0.102579  0.055099  0.010494)
 22:   1054.72   0.050456  254.98  0.014929  (-0.014854  0.099759  0.068965)
 23:   1076.31   0.013401   67.73  0.003886  (-0.033112  0.052196 -0.008048)
 24:   1134.33   0.000745    3.77  0.000205  ( 0.014131 -0.002311  0.000264)
 25:   1150.23   0.009013   45.55  0.002445  ( 0.027847 -0.038973 -0.012286)
 26:   1340.64   0.002071   10.47  0.000482  ( 0.019701  0.009192  0.003081)
 27:   1397.50   0.000522    2.64  0.000117  ( 0.004535  0.008341 -0.005136)
 28:   1402.40   0.001449    7.32  0.000322  (-0.006785  0.003784  0.016189)
 29:   1406.41   0.001159    5.86  0.000257  (-0.006912 -0.004580  0.013729)
 30:   1434.62   0.000721    3.65  0.000157  ( 0.003905  0.011383  0.003475)
 31:   1437.86   0.001314    6.64  0.000285  (-0.002635 -0.000925  0.016657)
 32:   1486.76   0.007270   36.74  0.001526  ( 0.017605  0.014184 -0.031857)
 33:   1744.28   0.019653   99.32  0.003516  ( 0.026518 -0.012411  0.051563)
 34:   1874.49   0.039439  199.31  0.006566  (-0.010427 -0.027810  0.075390)
 35:   2904.10   0.011600   58.62  0.001246  ( 0.032635 -0.008297 -0.010611)
 36:   2976.08   0.005611   28.36  0.000588  (-0.014895  0.014973 -0.011930)
 37:   2980.27   0.000762    3.85  0.000080  ( 0.008255  0.001029  0.003252)
 38:   2996.61   0.008267   41.78  0.000861  ( 0.009241  0.023133  0.015502)
 39:   3060.41   0.001344    6.79  0.000137  ( 0.004854 -0.010069 -0.003476)
 40:   3107.58   0.000332    1.68  0.000033  ( 0.000115 -0.001779  0.005492)
 41:   3630.80   0.007576   38.29  0.000651  ( 0.007627  0.024325  0.001132)

* The epsilon (eps) is given for a Dirac delta lineshape.
** The dipole moment derivative (T) already includes vibrational overlap.

The first frequency considered to be a vibration is 7
The total number of vibrations considered is 35


--------------------------
THERMOCHEMISTRY AT 298.15K
--------------------------

Temperature         ... 298.15 K
Pressure            ... 1.00 atm
Total Mass          ... 92.09 AMU

Throughout the following assumptions are being made:
  (1) The electronic state is orbitally nondegenerate
  (2) There are no thermally accessible electronically excited states
  (3) Hindered rotations indicated by low frequency modes are not
      treated as such but are treated as vibrations and this may
      cause some error
  (4) All equations used are the standard statistical mechanics
      equations for an ideal gas
  (5) All vibrations are strictly harmonic

freq.     107.24  E(vib)   ...       0.45 
freq.     129.82  E(vib)   ...       0.43 
freq.     175.95  E(vib)   ...       0.38 
freq.     223.76  E(vib)   ...       0.33 
freq.     274.12  E(vib)   ...       0.28 
freq.     325.10  E(vib)   ...       0.24 
freq.     377.25  E(vib)   ...       0.21 
freq.     433.76  E(vib)   ...       0.17 
freq.     518.91  E(vib)   ...       0.13 
freq.     583.83  E(vib)   ...       0.11 
freq.     628.60  E(vib)   ...       0.09 
freq.     726.29  E(vib)   ...       0.06 
freq.     833.51  E(vib)   ...       0.04 
freq.     960.66  E(vib)   ...       0.03 
freq.    1014.86  E(vib)   ...       0.02 
freq.    1054.72  E(vib)   ...       0.02 
freq.    1076.31  E(vib)   ...       0.02 
freq.    1134.33  E(vib)   ...       0.01 
freq.    1150.23  E(vib)   ...       0.01 
freq.    1340.64  E(vib)   ...       0.01 
freq.    1397.50  E(vib)   ...       0.00 
freq.    1402.40  E(vib)   ...       0.00 
freq.    1406.41  E(vib)   ...       0.00 
freq.    1434.62  E(vib)   ...       0.00 
freq.    1437.86  E(vib)   ...       0.00 
freq.    1486.76  E(vib)   ...       0.00 
freq.    1744.28  E(vib)   ...       0.00 
freq.    1874.49  E(vib)   ...       0.00 
freq.    2904.10  E(vib)   ...       0.00 
freq.    2976.08  E(vib)   ...       0.00 
freq.    2980.27  E(vib)   ...       0.00 
freq.    2996.61  E(vib)   ...       0.00 
freq.    3060.41  E(vib)   ...       0.00 
freq.    3107.58  E(vib)   ...       0.00 
freq.    3630.80  E(vib)   ...       0.00 

------------
INNER ENERGY
------------

The inner energy is: U= E(el) + E(ZPE) + E(vib) + E(rot) + E(trans)
    E(el)   - is the total energy from the electronic structure calculation
              = E(kin-el) + E(nuc-el) + E(el-el) + E(nuc-nuc)
    E(ZPE)  - the the zero temperature vibrational energy from the frequency calculation
    E(vib)  - the the finite temperature correction to E(ZPE) due to population
              of excited vibrational states
    E(rot)  - is the rotational thermal energy
    E(trans)- is the translational thermal energy

Summary of contributions to the inner energy U:
Electronic energy                ...   -344.41172720 Eh
Zero point energy                ...      0.10686894 Eh      67.06 kcal/mol
Thermal vibrational correction   ...      0.00490304 Eh       3.08 kcal/mol
Thermal rotational correction    ...      0.00141627 Eh       0.89 kcal/mol
Thermal translational correction ...      0.00141627 Eh       0.89 kcal/mol
-----------------------------------------------------------------------
Total thermal energy                   -344.29712267 Eh


Summary of corrections to the electronic energy:
(perhaps to be used in another calculation)
Total thermal correction                  0.00773559 Eh       4.85 kcal/mol
Non-thermal (ZPE) correction              0.10686894 Eh      67.06 kcal/mol
-----------------------------------------------------------------------
Total correction                          0.11460453 Eh      71.92 kcal/mol


--------
ENTHALPY
--------

The enthalpy is H = U + kB*T
                kB is Boltzmann's constant
Total free energy                 ...   -344.29712267 Eh 
Thermal Enthalpy correction       ...      0.00094421 Eh       0.59 kcal/mol
-----------------------------------------------------------------------
Total Enthalpy                    ...   -344.29617846 Eh


Note: Only C1 symmetry has been detected, increase convergence thresholds 
      if your molecule has a higher symmetry. Symmetry factor of 1.0 is   
      used for the rotational entropy correction. 
 

Note: Rotational entropy computed according to Herzberg 
Infrared and Raman Spectra, Chapter V,1, Van Nostrand Reinhold, 1945 
Point Group:  C1, Symmetry Number:   1  
Rotational constants in cm-1:     0.143670     0.087628     0.082547 

Vibrational entropy computed according to the QRRHO of S. Grimme
Chem.Eur.J. 2012 18 9955


-------
ENTROPY
-------

The entropy contributions are T*S = T*(S(el)+S(vib)+S(rot)+S(trans))
     S(el)   - electronic entropy
     S(vib)  - vibrational entropy
     S(rot)  - rotational entropy
     S(trans)- translational entropy
The entropies will be listed as multiplied by the temperature to get
units of energy

Electronic entropy                ...      0.00000000 Eh      0.00 kcal/mol
Vibrational entropy               ...      0.00833079 Eh      5.23 kcal/mol
Rotational entropy                ...      0.01275373 Eh      8.00 kcal/mol
Translational entropy             ...      0.01875460 Eh     11.77 kcal/mol
-----------------------------------------------------------------------
Final entropy term                ...      0.03983912 Eh     25.00 kcal/mol

In case the symmetry of your molecule has not been determined correctly
or in case you have a reason to use a different symmetry number we print 
out the resulting rotational entropy values for sn=1,12 :
 --------------------------------------------------------
|  sn= 1 | S(rot)=       0.01275373 Eh      8.00 kcal/mol|
|  sn= 2 | S(rot)=       0.01209928 Eh      7.59 kcal/mol|
|  sn= 3 | S(rot)=       0.01171644 Eh      7.35 kcal/mol|
|  sn= 4 | S(rot)=       0.01144482 Eh      7.18 kcal/mol|
|  sn= 5 | S(rot)=       0.01123413 Eh      7.05 kcal/mol|
|  sn= 6 | S(rot)=       0.01106199 Eh      6.94 kcal/mol|
|  sn= 7 | S(rot)=       0.01091644 Eh      6.85 kcal/mol|
|  sn= 8 | S(rot)=       0.01079036 Eh      6.77 kcal/mol|
|  sn= 9 | S(rot)=       0.01067915 Eh      6.70 kcal/mol|
|  sn=10 | S(rot)=       0.01057967 Eh      6.64 kcal/mol|
|  sn=11 | S(rot)=       0.01048968 Eh      6.58 kcal/mol|
|  sn=12 | S(rot)=       0.01040753 Eh      6.53 kcal/mol|
 --------------------------------------------------------


-------------------
GIBBS FREE ENERGY
-------------------

The Gibbs free energy is G = H - T*S

Total enthalpy                    ...   -344.29617846 Eh 
Total entropy correction          ...     -0.03983912 Eh    -25.00 kcal/mol
-----------------------------------------------------------------------
Final Gibbs free energy         ...   -344.33601758 Eh

For completeness - the Gibbs free energy minus the electronic energy
G-E(el)                           ...      0.07570962 Eh     47.51 kcal/mol



Timings for individual modules:

Sum of individual times         ...     6323.974 sec (= 105.400 min)
GTO integral calculation        ...       11.084 sec (=   0.185 min)   0.2 %
SCF iterations                  ...      192.522 sec (=   3.209 min)   3.0 %
SCF Gradient evaluation         ...       20.955 sec (=   0.349 min)   0.3 %
Geometry relaxation             ...        0.455 sec (=   0.008 min)   0.0 %
Numerical frequency calculation ...      222.514 sec (=   3.709 min)   3.5 %
NEB Iterations                  ...     5876.444 sec (=  97.941 min)  92.9 %
                             ****ORCA TERMINATED NORMALLY****
TOTAL RUN TIME: 0 days 1 hours 42 minutes 20 seconds 585 msec
