14
* (null), Energy   -1000.0000000
C    -1.910236   -0.258040    0.011465    0.001642   -0.009082   -0.004642
C    -0.629106    0.418228   -0.381315   -0.113939    0.284805    0.110727
H    -1.866785   -0.623488    1.049792   -0.016514    0.018826    0.006187
H    -2.078666   -1.108108   -0.677950    0.023464    0.012065   -0.032970
H    -2.741566    0.465639   -0.098053   -0.019998   -0.027238    0.026118
O     0.635236   -0.629240    0.455271    0.064618   -0.034088    0.091836
C     1.829280   -0.759129   -0.306862    0.044924    0.008755    0.004841
H     1.821537   -0.063833   -1.178430   -0.062380    0.007264    0.021440
H     1.926751   -1.798005   -0.688404   -0.070412    0.005002    0.065308
H     2.719299   -0.529978    0.318595    0.043581   -0.008277   -0.021557
O    -0.264091    0.910381   -1.409773    0.007659   -0.020942   -0.004509
O    -0.222323    1.400607    1.107800   -0.053110   -0.054885   -0.128073
H     0.283441    2.144810    0.717255   -0.151260    0.029766   -0.104676
H     0.497229    0.430157    1.080608    0.752109   -1.682580   -0.634880
14
* Frequency(6) -974.7418
C    -1.910049   -0.259072    0.010937    0.001642   -0.009082   -0.004642
C    -0.642055    0.450595   -0.368731   -0.113939    0.284805    0.110727
H    -1.868662   -0.621349    1.050495   -0.016514    0.018826    0.006187
H    -2.075999   -1.106737   -0.681697    0.023464    0.012065   -0.032970
H    -2.743839    0.462543   -0.095085   -0.019998   -0.027238    0.026118
O     0.642579   -0.633114    0.465708    0.064618   -0.034088    0.091836
C     1.834386   -0.758134   -0.306311    0.044924    0.008755    0.004841
H     1.814448   -0.063008   -1.175993   -0.062380    0.007264    0.021440
H     1.918749   -1.797437   -0.680982   -0.070412    0.005002    0.065308
H     2.724252   -0.530918    0.316145    0.043581   -0.008277   -0.021557
O    -0.263221    0.908001   -1.410286    0.007659   -0.020942   -0.004509
O    -0.228359    1.394370    1.093245   -0.053110   -0.054885   -0.128073
H     0.266251    2.148193    0.705359   -0.151260    0.029766   -0.104676
H     0.582702    0.238940    1.008457    0.752109   -1.682580   -0.634880
14
* Frequency(6) -974.7418
C    -1.909883   -0.259992    0.010467    0.001642   -0.009082   -0.004642
C    -0.653600    0.479454   -0.357511   -0.113939    0.284805    0.110727
H    -1.870335   -0.619441    1.051122   -0.016514    0.018826    0.006187
H    -2.073621   -1.105515   -0.685038    0.023464    0.012065   -0.032970
H    -2.745865    0.459783   -0.092438   -0.019998   -0.027238    0.026118
O     0.649127   -0.636568    0.475013    0.064618   -0.034088    0.091836
C     1.838938   -0.757247   -0.305821    0.044924    0.008755    0.004841
H     1.808127   -0.062272   -1.173821   -0.062380    0.007264    0.021440
H     1.911615   -1.796930   -0.674364   -0.070412    0.005002    0.065308
H     2.728668   -0.531757    0.313961    0.043581   -0.008277   -0.021557
O    -0.262445    0.905879   -1.410743    0.007659   -0.020942   -0.004509
O    -0.233740    1.388808    1.080268   -0.053110   -0.054885   -0.128073
H     0.250924    2.151209    0.694753   -0.151260    0.029766   -0.104676
H     0.658913    0.068445    0.944125    0.752109   -1.682580   -0.634880
14
* Frequency(6) -974.7418
C    -1.909755   -0.260701    0.010104    0.001642   -0.009082   -0.004642
C    -0.662491    0.501678   -0.348871   -0.113939    0.284805    0.110727
H    -1.871624   -0.617972    1.051605   -0.016514    0.018826    0.006187
H    -2.071790   -1.104573   -0.687611    0.023464    0.012065   -0.032970
H    -2.747426    0.457658   -0.090400   -0.019998   -0.027238    0.026118
O     0.654169   -0.639228    0.482180    0.064618   -0.034088    0.091836
C     1.842443   -0.756564   -0.305443    0.044924    0.008755    0.004841
H     1.803259   -0.061705   -1.172147   -0.062380    0.007264    0.021440
H     1.906120   -1.796540   -0.669268   -0.070412    0.005002    0.065308
H     2.732069   -0.532403    0.312278    0.043581   -0.008277   -0.021557
O    -0.261847    0.904245   -1.411095    0.007659   -0.020942   -0.004509
O    -0.237885    1.384525    1.070274   -0.053110   -0.054885   -0.128073
H     0.239120    2.153532    0.686584   -0.151260    0.029766   -0.104676
H     0.717603   -0.062853    0.894583    0.752109   -1.682580   -0.634880
14
* Frequency(6) -974.7418
C    -1.909679   -0.261121    0.009889    0.001642   -0.009082   -0.004642
C    -0.667764    0.514859   -0.343746   -0.113939    0.284805    0.110727
H    -1.872388   -0.617101    1.051891   -0.016514    0.018826    0.006187
H    -2.070704   -1.104015   -0.689137    0.023464    0.012065   -0.032970
H    -2.748351    0.456397   -0.089191   -0.019998   -0.027238    0.026118
O     0.657160   -0.640806    0.486430    0.064618   -0.034088    0.091836
C     1.844523   -0.756159   -0.305219    0.044924    0.008755    0.004841
H     1.800372   -0.061369   -1.171155   -0.062380    0.007264    0.021440
H     1.902861   -1.796308   -0.666246   -0.070412    0.005002    0.065308
H     2.734086   -0.532786    0.311281    0.043581   -0.008277   -0.021557
O    -0.261493    0.903276   -1.411303    0.007659   -0.020942   -0.004509
O    -0.240343    1.381985    1.064346   -0.053110   -0.054885   -0.128073
H     0.232120    2.154909    0.681740   -0.151260    0.029766   -0.104676
H     0.752412   -0.140726    0.865199    0.752109   -1.682580   -0.634880
14
* Frequency(6) -974.7418
C    -1.909663   -0.261207    0.009845    0.001642   -0.009082   -0.004642
C    -0.668849    0.517569   -0.342693   -0.113939    0.284805    0.110727
H    -1.872545   -0.616922    1.051950   -0.016514    0.018826    0.006187
H    -2.070481   -1.103900   -0.689450    0.023464    0.012065   -0.032970
H    -2.748541    0.456138   -0.088943   -0.019998   -0.027238    0.026118
O     0.657775   -0.641130    0.487304    0.064618   -0.034088    0.091836
C     1.844950   -0.756075   -0.305173    0.044924    0.008755    0.004841
H     1.799779   -0.061300   -1.170951   -0.062380    0.007264    0.021440
H     1.902191   -1.796261   -0.665624   -0.070412    0.005002    0.065308
H     2.734500   -0.532865    0.311076    0.043581   -0.008277   -0.021557
O    -0.261420    0.903077   -1.411346    0.007659   -0.020942   -0.004509
O    -0.240848    1.381463    1.063128   -0.053110   -0.054885   -0.128073
H     0.230681    2.155193    0.680744   -0.151260    0.029766   -0.104676
H     0.759568   -0.156735    0.859159    0.752109   -1.682580   -0.634880
14
* Frequency(6) -974.7418
C    -1.909710   -0.260951    0.009977    0.001642   -0.009082   -0.004642
C    -0.665626    0.509514   -0.345824   -0.113939    0.284805    0.110727
H    -1.872078   -0.617454    1.051775   -0.016514    0.018826    0.006187
H    -2.071145   -1.104241   -0.688518    0.023464    0.012065   -0.032970
H    -2.747976    0.456908   -0.089682   -0.019998   -0.027238    0.026118
O     0.655947   -0.640166    0.484706    0.064618   -0.034088    0.091836
C     1.843679   -0.756323   -0.305310    0.044924    0.008755    0.004841
H     1.801543   -0.061505   -1.171558   -0.062380    0.007264    0.021440
H     1.904183   -1.796402   -0.667471   -0.070412    0.005002    0.065308
H     2.733268   -0.532630    0.311685    0.043581   -0.008277   -0.021557
O    -0.261636    0.903669   -1.411219    0.007659   -0.020942   -0.004509
O    -0.239346    1.383015    1.066750   -0.053110   -0.054885   -0.128073
H     0.234959    2.154351    0.683705   -0.151260    0.029766   -0.104676
H     0.738295   -0.109145    0.877116    0.752109   -1.682580   -0.634880
14
* Frequency(6) -974.7418
C    -1.909813   -0.260378    0.010269    0.001642   -0.009082   -0.004642
C    -0.658446    0.491566   -0.352802   -0.113939    0.284805    0.110727
H    -1.871038   -0.618640    1.051385   -0.016514    0.018826    0.006187
H    -2.072623   -1.105002   -0.686440    0.023464    0.012065   -0.032970
H    -2.746716    0.458625   -0.091327   -0.019998   -0.027238    0.026118
O     0.651875   -0.638018    0.478919    0.064618   -0.034088    0.091836
C     1.840848   -0.756875   -0.305615    0.044924    0.008755    0.004841
H     1.805474   -0.061963   -1.172909   -0.062380    0.007264    0.021440
H     1.908620   -1.796717   -0.671587   -0.070412    0.005002    0.065308
H     2.730521   -0.532109    0.313044    0.043581   -0.008277   -0.021557
O    -0.262119    0.904989   -1.410934    0.007659   -0.020942   -0.004509
O    -0.235999    1.386474    1.074821   -0.053110   -0.054885   -0.128073
H     0.244491    2.152475    0.690301   -0.151260    0.029766   -0.104676
H     0.690899   -0.003113    0.917124    0.752109   -1.682580   -0.634880
14
* Frequency(6) -974.7418
C    -1.909962   -0.259552    0.010691    0.001642   -0.009082   -0.004642
C    -0.648086    0.465671   -0.362870   -0.113939    0.284805    0.110727
H    -1.869536   -0.620352    1.050823   -0.016514    0.018826    0.006187
H    -2.074757   -1.106099   -0.683442    0.023464    0.012065   -0.032970
H    -2.744897    0.461101   -0.093702   -0.019998   -0.027238    0.026118
O     0.646000   -0.634919    0.470569    0.064618   -0.034088    0.091836
C     1.836764   -0.757671   -0.306055    0.044924    0.008755    0.004841
H     1.811146   -0.062623   -1.174858   -0.062380    0.007264    0.021440
H     1.915022   -1.797172   -0.677525   -0.070412    0.005002    0.065308
H     2.726559   -0.531356    0.315004    0.043581   -0.008277   -0.021557
O    -0.262815    0.906893   -1.410524    0.007659   -0.020942   -0.004509
O    -0.231170    1.391464    1.086466   -0.053110   -0.054885   -0.128073
H     0.258244    2.149769    0.699818   -0.151260    0.029766   -0.104676
H     0.622516    0.149870    0.974849    0.752109   -1.682580   -0.634880
14
* Frequency(6) -974.7418
C    -1.910141   -0.258563    0.011197    0.001642   -0.009082   -0.004642
C    -0.635670    0.434635   -0.374936   -0.113939    0.284805    0.110727
H    -1.867737   -0.622404    1.050149   -0.016514    0.018826    0.006187
H    -2.077314   -1.107413   -0.679849    0.023464    0.012065   -0.032970
H    -2.742718    0.464070   -0.096548   -0.019998   -0.027238    0.026118
O     0.638958   -0.631204    0.460562    0.064618   -0.034088    0.091836
C     1.831868   -0.758625   -0.306583    0.044924    0.008755    0.004841
H     1.817944   -0.063415   -1.177194   -0.062380    0.007264    0.021440
H     1.922695   -1.797717   -0.684642   -0.070412    0.005002    0.065308
H     2.721810   -0.530454    0.317353    0.043581   -0.008277   -0.021557
O    -0.263650    0.909175   -1.410033    0.007659   -0.020942   -0.004509
O    -0.225383    1.397445    1.100422   -0.053110   -0.054885   -0.128073
H     0.274727    2.146525    0.711225   -0.151260    0.029766   -0.104676
H     0.540556    0.333226    1.044034    0.752109   -1.682580   -0.634880
14
* Frequency(6) -974.7418
C    -1.910330   -0.257516    0.011732    0.001642   -0.009082   -0.004642
C    -0.622542    0.401821   -0.387693   -0.113939    0.284805    0.110727
H    -1.865834   -0.624573    1.049436   -0.016514    0.018826    0.006187
H    -2.080017   -1.108804   -0.676051    0.023464    0.012065   -0.032970
H    -2.740414    0.467208   -0.099557   -0.019998   -0.027238    0.026118
O     0.631513   -0.627277    0.449981    0.064618   -0.034088    0.091836
C     1.826692   -0.759634   -0.307140    0.044924    0.008755    0.004841
H     1.825131   -0.064252   -1.179665   -0.062380    0.007264    0.021440
H     1.930808   -1.798293   -0.692166   -0.070412    0.005002    0.065308
H     2.716788   -0.529501    0.319837    0.043581   -0.008277   -0.021557
O    -0.264532    0.911588   -1.409514    0.007659   -0.020942   -0.004509
O    -0.219263    1.403769    1.115178   -0.053110   -0.054885   -0.128073
H     0.292154    2.143095    0.723286   -0.151260    0.029766   -0.104676
H     0.453901    0.527087    1.117182    0.752109   -1.682580   -0.634880
14
* Frequency(6) -974.7418
C    -1.910509   -0.256527    0.012238    0.001642   -0.009082   -0.004642
C    -0.610126    0.370785   -0.399760   -0.113939    0.284805    0.110727
H    -1.864034   -0.626624    1.048761   -0.016514    0.018826    0.006187
H    -2.082574   -1.110118   -0.672458    0.023464    0.012065   -0.032970
H    -2.738235    0.470176   -0.102403   -0.019998   -0.027238    0.026118
O     0.624471   -0.623562    0.439973    0.064618   -0.034088    0.091836
C     1.821797   -0.760588   -0.307668    0.044924    0.008755    0.004841
H     1.831929   -0.065043   -1.182001   -0.062380    0.007264    0.021440
H     1.938481   -1.798839   -0.699283   -0.070412    0.005002    0.065308
H     2.712039   -0.528599    0.322186    0.043581   -0.008277   -0.021557
O    -0.265367    0.913870   -1.409022    0.007659   -0.020942   -0.004509
O    -0.213476    1.409750    1.129135   -0.053110   -0.054885   -0.128073
H     0.308638    2.139852    0.734692   -0.151260    0.029766   -0.104676
H     0.371941    0.710443    1.186367    0.752109   -1.682580   -0.634880
14
* Frequency(6) -974.7418
C    -1.910659   -0.255701    0.012660    0.001642   -0.009082   -0.004642
C    -0.599766    0.344890   -0.409827   -0.113939    0.284805    0.110727
H    -1.862533   -0.628336    1.048199   -0.016514    0.018826    0.006187
H    -2.084708   -1.111215   -0.669460    0.023464    0.012065   -0.032970
H    -2.736417    0.472653   -0.104778   -0.019998   -0.027238    0.026118
O     0.618596   -0.620463    0.431623    0.064618   -0.034088    0.091836
C     1.817712   -0.761384   -0.308108    0.044924    0.008755    0.004841
H     1.837600   -0.065704   -1.183950   -0.062380    0.007264    0.021440
H     1.944883   -1.799293   -0.705221   -0.070412    0.005002    0.065308
H     2.708077   -0.527846    0.324146    0.043581   -0.008277   -0.021557
O    -0.266063    0.915774   -1.408612    0.007659   -0.020942   -0.004509
O    -0.208647    1.414740    1.140779   -0.053110   -0.054885   -0.128073
H     0.322391    2.137145    0.744210   -0.151260    0.029766   -0.104676
H     0.303558    0.863427    1.244092    0.752109   -1.682580   -0.634880
14
* Frequency(6) -974.7418
C    -1.910762   -0.255129    0.012952    0.001642   -0.009082   -0.004642
C    -0.592586    0.326942   -0.416805   -0.113939    0.284805    0.110727
H    -1.861492   -0.629522    1.047809   -0.016514    0.018826    0.006187
H    -2.086186   -1.111975   -0.667382    0.023464    0.012065   -0.032970
H    -2.735156    0.474369   -0.106424   -0.019998   -0.027238    0.026118
O     0.614524   -0.618315    0.425836    0.064618   -0.034088    0.091836
C     1.814881   -0.761935   -0.308413    0.044924    0.008755    0.004841
H     1.841531   -0.066162   -1.185301   -0.062380    0.007264    0.021440
H     1.949320   -1.799609   -0.709337   -0.070412    0.005002    0.065308
H     2.705330   -0.527325    0.325504    0.043581   -0.008277   -0.021557
O    -0.266546    0.917094   -1.408328    0.007659   -0.020942   -0.004509
O    -0.205300    1.418199    1.148850   -0.053110   -0.054885   -0.128073
H     0.331923    2.135269    0.750806   -0.151260    0.029766   -0.104676
H     0.256162    0.969458    1.284100    0.752109   -1.682580   -0.634880
14
* Frequency(6) -974.7418
C    -1.910809   -0.254872    0.013084    0.001642   -0.009082   -0.004642
C    -0.589364    0.318887   -0.419937   -0.113939    0.284805    0.110727
H    -1.861025   -0.630055    1.047634   -0.016514    0.018826    0.006187
H    -2.086850   -1.112317   -0.666450    0.023464    0.012065   -0.032970
H    -2.734591    0.475139   -0.107163   -0.019998   -0.027238    0.026118
O     0.612696   -0.617350    0.423238    0.064618   -0.034088    0.091836
C     1.813611   -0.762183   -0.308550    0.044924    0.008755    0.004841
H     1.843296   -0.066367   -1.185908   -0.062380    0.007264    0.021440
H     1.951312   -1.799750   -0.711184   -0.070412    0.005002    0.065308
H     2.704098   -0.527090    0.326114    0.043581   -0.008277   -0.021557
O    -0.266763    0.917686   -1.408200    0.007659   -0.020942   -0.004509
O    -0.203798    1.419751    1.152472   -0.053110   -0.054885   -0.128073
H     0.336201    2.134428    0.753767   -0.151260    0.029766   -0.104676
H     0.234890    1.017048    1.302057    0.752109   -1.682580   -0.634880
14
* Frequency(6) -974.7418
C    -1.910793   -0.254958    0.013040    0.001642   -0.009082   -0.004642
C    -0.590448    0.321597   -0.418883   -0.113939    0.284805    0.110727
H    -1.861182   -0.629876    1.047693   -0.016514    0.018826    0.006187
H    -2.086627   -1.112202   -0.666764    0.023464    0.012065   -0.032970
H    -2.734781    0.474880   -0.106914   -0.019998   -0.027238    0.026118
O     0.613311   -0.617675    0.424112    0.064618   -0.034088    0.091836
C     1.814038   -0.762100   -0.308504    0.044924    0.008755    0.004841
H     1.842702   -0.066298   -1.185704   -0.062380    0.007264    0.021440
H     1.950642   -1.799702   -0.710562   -0.070412    0.005002    0.065308
H     2.704512   -0.527169    0.325909    0.043581   -0.008277   -0.021557
O    -0.266690    0.917487   -1.408243    0.007659   -0.020942   -0.004509
O    -0.204303    1.419229    1.151254   -0.053110   -0.054885   -0.128073
H     0.334762    2.134711    0.752771   -0.151260    0.029766   -0.104676
H     0.242046    1.001039    1.296016    0.752109   -1.682580   -0.634880
14
* Frequency(6) -974.7418
C    -1.910717   -0.255378    0.012825    0.001642   -0.009082   -0.004642
C    -0.595721    0.334778   -0.413759   -0.113939    0.284805    0.110727
H    -1.861947   -0.629004    1.047979   -0.016514    0.018826    0.006187
H    -2.085541   -1.111644   -0.668289    0.023464    0.012065   -0.032970
H    -2.735706    0.473620   -0.105705   -0.019998   -0.027238    0.026118
O     0.616302   -0.619252    0.428362    0.064618   -0.034088    0.091836
C     1.816117   -0.761694   -0.308280    0.044924    0.008755    0.004841
H     1.839815   -0.065962   -1.184712   -0.062380    0.007264    0.021440
H     1.947383   -1.799471   -0.707540   -0.070412    0.005002    0.065308
H     2.706529   -0.527552    0.324911    0.043581   -0.008277   -0.021557
O    -0.266335    0.916518   -1.408452    0.007659   -0.020942   -0.004509
O    -0.206761    1.416689    1.145326   -0.053110   -0.054885   -0.128073
H     0.327761    2.136088    0.747926   -0.151260    0.029766   -0.104676
H     0.276855    0.923166    1.266633    0.752109   -1.682580   -0.634880
14
* Frequency(6) -974.7418
C    -1.910589   -0.256087    0.012463    0.001642   -0.009082   -0.004642
C    -0.604612    0.357002   -0.405118   -0.113939    0.284805    0.110727
H    -1.863235   -0.627535    1.048462   -0.016514    0.018826    0.006187
H    -2.083710   -1.110702   -0.670862    0.023464    0.012065   -0.032970
H    -2.737267    0.471494   -0.103667   -0.019998   -0.027238    0.026118
O     0.621344   -0.621912    0.435529    0.064618   -0.034088    0.091836
C     1.819623   -0.761011   -0.307902    0.044924    0.008755    0.004841
H     1.834947   -0.065395   -1.183039   -0.062380    0.007264    0.021440
H     1.941888   -1.799081   -0.702444   -0.070412    0.005002    0.065308
H     2.709930   -0.528198    0.323229    0.043581   -0.008277   -0.021557
O    -0.265738    0.914883   -1.408804    0.007659   -0.020942   -0.004509
O    -0.210906    1.412406    1.135332   -0.053110   -0.054885   -0.128073
H     0.315958    2.138411    0.739758   -0.151260    0.029766   -0.104676
H     0.335545    0.791868    1.217091    0.752109   -1.682580   -0.634880
14
* Frequency(6) -974.7418
C    -1.910422   -0.257007    0.011992    0.001642   -0.009082   -0.004642
C    -0.616157    0.385862   -0.393898   -0.113939    0.284805    0.110727
H    -1.864909   -0.625628    1.049089   -0.016514    0.018826    0.006187
H    -2.081332   -1.109480   -0.674203    0.023464    0.012065   -0.032970
H    -2.739293    0.468734   -0.101021   -0.019998   -0.027238    0.026118
O     0.627892   -0.625367    0.444834    0.064618   -0.034088    0.091836
C     1.824175   -0.760124   -0.307412    0.044924    0.008755    0.004841
H     1.828626   -0.064659   -1.180866   -0.062380    0.007264    0.021440
H     1.934753   -1.798574   -0.695826   -0.070412    0.005002    0.065308
H     2.714346   -0.529037    0.321045    0.043581   -0.008277   -0.021557
O    -0.264962    0.912761   -1.409261    0.007659   -0.020942   -0.004509
O    -0.216287    1.406845    1.122355   -0.053110   -0.054885   -0.128073
H     0.300631    2.141427    0.729151   -0.151260    0.029766   -0.104676
H     0.411755    0.621373    1.152759    0.752109   -1.682580   -0.634880
14
* Frequency(6) -974.7418
C    -1.910236   -0.258040    0.011465    0.001642   -0.009082   -0.004642
C    -0.629106    0.418228   -0.381315   -0.113939    0.284805    0.110727
H    -1.866785   -0.623488    1.049792   -0.016514    0.018826    0.006187
H    -2.078666   -1.108108   -0.677950    0.023464    0.012065   -0.032970
H    -2.741566    0.465639   -0.098053   -0.019998   -0.027238    0.026118
O     0.635236   -0.629240    0.455271    0.064618   -0.034088    0.091836
C     1.829280   -0.759129   -0.306862    0.044924    0.008755    0.004841
H     1.821537   -0.063833   -1.178430   -0.062380    0.007264    0.021440
H     1.926751   -1.798005   -0.688404   -0.070412    0.005002    0.065308
H     2.719299   -0.529978    0.318595    0.043581   -0.008277   -0.021557
O    -0.264091    0.910381   -1.409773    0.007659   -0.020942   -0.004509
O    -0.222323    1.400607    1.107800   -0.053110   -0.054885   -0.128073
H     0.283441    2.144810    0.717255   -0.151260    0.029766   -0.104676
H     0.497229    0.430157    1.080608    0.752109   -1.682580   -0.634880
