
                                 *****************
                                 * O   R   C   A *
                                 *****************

                                            #,                                       
                                            ###                                      
                                            ####                                     
                                            #####                                    
                                            ######                                   
                                           ########,                                 
                                     ,,################,,,,,                         
                               ,,#################################,,                 
                          ,,##########################################,,             
                       ,#########################################, ''#####,          
                    ,#############################################,,   '####,        
                  ,##################################################,,,,####,       
                ,###########''''           ''''###############################       
              ,#####''   ,,,,##########,,,,          '''####'''          '####       
            ,##' ,,,,###########################,,,                        '##       
           ' ,,###''''                  '''############,,,                           
         ,,##''                                '''############,,,,        ,,,,,,###''
      ,#''                                            '''#######################'''  
     '                                                          ''''####''''         
             ,#######,   #######,   ,#######,      ##                                
            ,#'     '#,  ##    ##  ,#'     '#,    #''#        ######   ,####,        
            ##       ##  ##   ,#'  ##            #'  '#       #        #'  '#        
            ##       ##  #######   ##           ,######,      #####,   #    #        
            '#,     ,#'  ##    ##  '#,     ,#' ,#      #,         ##   #,  ,#        
             '#######'   ##     ##  '#######'  #'      '#     #####' # '####'        



                  #######################################################
                  #                        -***-                        #
                  #          Department of theory and spectroscopy      #
                  #    Directorship and core code : Frank Neese         #
                  #        Max Planck Institute fuer Kohlenforschung    #
                  #                Kaiser Wilhelm Platz 1               #
                  #                 D-45470 Muelheim/Ruhr               #
                  #                      Germany                        #
                  #                                                     #
                  #                  All rights reserved                #
                  #                        -***-                        #
                  #######################################################


                         Program Version 5.0.3 -  RELEASE  -


 With contributions from (in alphabetic order):
   Daniel Aravena         : Magnetic Suceptibility
   Michael Atanasov       : Ab Initio Ligand Field Theory (pilot matlab implementation)
   Alexander A. Auer      : GIAO ZORA, VPT2 properties, NMR spectrum
   Ute Becker             : Parallelization
   Giovanni Bistoni       : ED, misc. LED, open-shell LED, HFLD
   Martin Brehm           : Molecular dynamics
   Dmytro Bykov           : SCF Hessian
   Vijay G. Chilkuri      : MRCI spin determinant printing, contributions to CSF-ICE
   Dipayan Datta          : RHF DLPNO-CCSD density
   Achintya Kumar Dutta   : EOM-CC, STEOM-CC
   Dmitry Ganyushin       : Spin-Orbit,Spin-Spin,Magnetic field MRCI
   Miquel Garcia          : C-PCM and meta-GGA Hessian, CC/C-PCM, Gaussian charge scheme
   Yang Guo               : DLPNO-NEVPT2, F12-NEVPT2, CIM, IAO-localization
   Andreas Hansen         : Spin unrestricted coupled pair/coupled cluster methods
   Benjamin Helmich-Paris : MC-RPA, TRAH-SCF, COSX integrals
   Lee Huntington         : MR-EOM, pCC
   Robert Izsak           : Overlap fitted RIJCOSX, COSX-SCS-MP3, EOM
   Marcus Kettner         : VPT2
   Christian Kollmar      : KDIIS, OOCD, Brueckner-CCSD(T), CCSD density, CASPT2, CASPT2-K
   Simone Kossmann        : Meta GGA functionals, TD-DFT gradient, OOMP2, MP2 Hessian
   Martin Krupicka        : Initial AUTO-CI
   Lucas Lang             : DCDCAS
   Marvin Lechner         : AUTO-CI (C++ implementation), FIC-MRCC
   Dagmar Lenk            : GEPOL surface, SMD
   Dimitrios Liakos       : Extrapolation schemes; Compound Job, initial MDCI parallelization
   Dimitrios Manganas     : Further ROCIS development; embedding schemes
   Dimitrios Pantazis     : SARC Basis sets
   Anastasios Papadopoulos: AUTO-CI, single reference methods and gradients
   Taras Petrenko         : DFT Hessian,TD-DFT gradient, ASA, ECA, R-Raman, ABS, FL, XAS/XES, NRVS
   Peter Pinski           : DLPNO-MP2, DLPNO-MP2 Gradient
   Christoph Reimann      : Effective Core Potentials
   Marius Retegan         : Local ZFS, SOC
   Christoph Riplinger    : Optimizer, TS searches, QM/MM, DLPNO-CCSD(T), (RO)-DLPNO pert. Triples
   Tobias Risthaus        : Range-separated hybrids, TD-DFT gradient, RPA, STAB
   Michael Roemelt        : Original ROCIS implementation
   Masaaki Saitow         : Open-shell DLPNO-CCSD energy and density
   Barbara Sandhoefer     : DKH picture change effects
   Avijit Sen             : IP-ROCIS
   Kantharuban Sivalingam : CASSCF convergence, NEVPT2, FIC-MRCI
   Bernardo de Souza      : ESD, SOC TD-DFT
   Georgi Stoychev        : AutoAux, RI-MP2 NMR, DLPNO-MP2 response
   Willem Van den Heuvel  : Paramagnetic NMR
   Boris Wezisla          : Elementary symmetry handling
   Frank Wennmohs         : Technical directorship


 We gratefully acknowledge several colleagues who have allowed us to
 interface, adapt or use parts of their codes:
   Stefan Grimme, W. Hujo, H. Kruse, P. Pracht,  : VdW corrections, initial TS optimization,
                  C. Bannwarth, S. Ehlert          DFT functionals, gCP, sTDA/sTD-DF
   Ed Valeev, F. Pavosevic, A. Kumar             : LibInt (2-el integral package), F12 methods
   Garnet Chan, S. Sharma, J. Yang, R. Olivares  : DMRG
   Ulf Ekstrom                                   : XCFun DFT Library
   Mihaly Kallay                                 : mrcc  (arbitrary order and MRCC methods)
   Jiri Pittner, Ondrej Demel                    : Mk-CCSD
   Frank Weinhold                                : gennbo (NPA and NBO analysis)
   Christopher J. Cramer and Donald G. Truhlar   : smd solvation model
   Lars Goerigk                                  : TD-DFT with DH, B97 family of functionals
   V. Asgeirsson, H. Jonsson                     : NEB implementation
   FAccTs GmbH                                   : IRC, NEB, NEB-TS, DLPNO-Multilevel, CI-OPT
                                                   MM, QMMM, 2- and 3-layer-ONIOM, Crystal-QMMM,
                                                   LR-CPCM, SF, NACMEs, symmetry and pop. for TD-DFT,
                                                   nearIR, NL-DFT gradient (VV10), updates on ESD,
                                                   ML-optimized integration grids
   S Lehtola, MJT Oliveira, MAL Marques          : LibXC Library
   Liviu Ungur et al                             : ANISO software


 Your calculation uses the libint2 library for the computation of 2-el integrals
 For citations please refer to: http://libint.valeyev.net

 Your ORCA version has been built with support for libXC version: 5.1.0
 For citations please refer to: https://tddft.org/programs/libxc/

 This ORCA versions uses:
   CBLAS   interface :  Fast vector & matrix operations
   LAPACKE interface :  Fast linear algebra routines
   SCALAPACK package :  Parallel linear algebra routines
   Shared memory     :  Shared parallel matrices
   BLAS/LAPACK       :  OpenBLAS 0.3.15  USE64BITINT DYNAMIC_ARCH NO_AFFINITY Haswell SINGLE_THREADED
        Core in use  :  Haswell
   Copyright (c) 2011-2014, The OpenBLAS Project




***************************************
The coordinates will be read from file: ts_hydr.xyz
***************************************


================================================================================

----- Orbital basis set information -----
Your calculation utilizes the basis: def2-SVP
   F. Weigend and R. Ahlrichs, Phys. Chem. Chem. Phys. 7, 3297 (2005).

----- AuxJ basis set information -----
Your calculation utilizes the auxiliary basis: def2/J
   F. Weigend, Phys. Chem. Chem. Phys. 8, 1057 (2006).

================================================================================
                                        WARNINGS
                       Please study these warnings very carefully!
================================================================================

WARNING: Old DensityContainer found on disk!
         Will remove this file - 
         If you want to keep old densities, please start your calculation with a different basename. 


WARNING: Geometry Optimization
  ===> : Switching off AutoStart
         For restart on a previous wavefunction, please use MOREAD

INFO   : the flag for use of the SHARK integral package has been found!

================================================================================
                                       INPUT FILE
================================================================================
NAME = ts.inp
|  1> !BLYP def2-SVP OptTS Freq xyzfile
|  2> 
|  3> %pal
|  4> nprocs 6
|  5> end
|  6> 
|  7> %Freq
|  8> Temp 298.15
|  9> end
| 10> 
| 11> *xyzfile 0 1 ts_hydr.xyz
| 12> 
| 13>                          ****END OF INPUT****
================================================================================

                       *****************************
                       * Geometry Optimization Run *
                       *****************************

Geometry optimization settings:
Update method            Update   .... Bofill
Choice of coordinates    CoordSys .... Z-matrix Internals
Initial Hessian          InHess   .... Almoef's Model

Convergence Tolerances:
Energy Change            TolE     ....  5.0000e-06 Eh
Max. Gradient            TolMAXG  ....  3.0000e-04 Eh/bohr
RMS Gradient             TolRMSG  ....  1.0000e-04 Eh/bohr
Max. Displacement        TolMAXD  ....  4.0000e-03 bohr
RMS Displacement         TolRMSD  ....  2.0000e-03 bohr
Strict Convergence                ....  False
------------------------------------------------------------------------------
                        ORCA OPTIMIZATION COORDINATE SETUP
------------------------------------------------------------------------------

The optimization will be done in new redundant internal coordinates
Making redundant internal coordinates   ...  (new redundants) done
Following TS mode number                ...     0
Evaluating the initial hessian          ...  (Almloef) done
Evaluating the coordinates              ...  done
Calculating the B-matrix                .... done
Calculating the G-matrix                .... done
Diagonalizing the G-matrix              .... done
The first mode is                       ....   34
The number of degrees of freedom        ....   36

    -----------------------------------------------------------------
                    Redundant Internal Coordinates


    -----------------------------------------------------------------
         Definition                    Initial Value    Approx d2E/dq
    -----------------------------------------------------------------
      1. B(C   1,C   0)                  1.5010         0.415619   
      2. B(H   2,C   0)                  1.1016         0.345053   
      3. B(H   3,C   0)                  1.1074         0.337834   
      4. B(H   4,C   0)                  1.1076         0.337534   
      5. B(O   5,C   1)                  1.8427         0.106068   
      6. B(C   6,O   5)                  1.4225         0.496649   
      7. B(H   7,C   6)                  1.1150         0.328554   
      8. B(H   8,C   6)                  1.1110         0.333354   
      9. B(H   9,C   6)                  1.1117         0.332529   
     10. B(O  10,C   1)                  1.1972         1.136446   
     11. B(O  11,C   1)                  1.8298         0.111243   
     12. B(H  12,O  11)                  0.9809         0.481533   
     13. B(H  13,O  11)                  1.2084         0.208754   
     14. B(H  13,O   5)                  1.2379         0.187320   
     15. A(H   2,C   0,H   3)          109.7637         0.286032   
     16. A(C   1,C   0,H   4)          108.6857         0.326563   
     17. A(C   1,C   0,H   2)          111.2507         0.327751   
     18. A(H   3,C   0,H   4)          109.0162         0.285052   
     19. A(H   2,C   0,H   4)          109.8492         0.285992   
     20. A(C   1,C   0,H   3)          108.2263         0.326611   
     21. A(C   0,C   1,O   5)          102.1645         0.298625   
     22. A(O  10,C   1,O  11)          114.2457         0.352884   
     23. A(C   0,C   1,O  10)          132.0885         0.447560   
     24. A(O   5,C   1,O  11)           77.4774         0.243275   
     25. A(C   0,C   1,O  11)          102.6319         0.300897   
     26. A(O   5,C   1,O  10)          114.4881         0.350054   
     27. A(C   6,O   5,H  13)          116.2555         0.301190   
     28. A(C   1,O   5,H  13)           70.5114         0.238615   
     29. A(C   1,O   5,C   6)          112.6193         0.305453   
     30. A(H   8,C   6,H   9)          108.4045         0.283800   
     31. A(H   7,C   6,H   9)          108.4707         0.283162   
     32. A(O   5,C   6,H   9)          110.5958         0.333472   
     33. A(H   7,C   6,H   8)          108.3775         0.283271   
     34. A(O   5,C   6,H   8)          110.0611         0.333610   
     35. A(O   5,C   6,H   7)          110.8576         0.332808   
     36. A(H  12,O  11,H  13)          107.0562         0.275121   
     37. A(C   1,O  11,H  13)           71.5124         0.243991   
     38. A(C   1,O  11,H  12)          101.4164         0.276269   
     39. A(O   5,H  13,O  11)          139.9089         0.239310   
     40. D(O  10,C   1,C   0,H   4)    -61.1285         0.013674   
     41. D(O  11,C   1,C   0,H   4)     79.1804         0.013674   
     42. D(O  11,C   1,C   0,H   3)   -162.5577         0.013674   
     43. D(O   5,C   1,C   0,H   2)     37.7971         0.013674   
     44. D(O  10,C   1,C   0,H   3)     57.1334         0.013674   
     45. D(O  11,C   1,C   0,H   2)    -41.8915         0.013674   
     46. D(O  10,C   1,C   0,H   2)    177.7995         0.013674   
     47. D(O   5,C   1,C   0,H   4)    158.8691         0.013674   
     48. D(O   5,C   1,C   0,H   3)    -82.8690         0.013674   
     49. D(H  13,O   5,C   1,O  10)    107.2518         0.002226   
     50. D(C   6,O   5,C   1,O  11)   -115.0705         0.002226   
     51. D(C   6,O   5,C   1,O  10)     -3.9044         0.002226   
     52. D(H  13,O   5,C   1,C   0)   -104.3588         0.002226   
     53. D(H  13,O   5,C   1,O  11)     -3.9143         0.002226   
     54. D(C   6,O   5,C   1,C   0)    144.4850         0.002226   
     55. D(H   9,C   6,O   5,H  13)     51.1177         0.021145   
     56. D(H   9,C   6,O   5,C   1)    129.7284         0.021145   
     57. D(H   8,C   6,O   5,H  13)    170.8731         0.021145   
     58. D(H   8,C   6,O   5,C   1)   -110.5162         0.021145   
     59. D(H   7,C   6,O   5,H  13)    -69.2382         0.021145   
     60. D(H   7,C   6,O   5,C   1)      9.3725         0.021145   
     61. D(H  13,O  11,C   1,O   5)      3.9859         0.002300   
     62. D(H  13,O  11,C   1,C   0)    103.8570         0.002300   
     63. D(H  12,O  11,C   1,O  10)     -3.1027         0.002300   
     64. D(H  12,O  11,C   1,O   5)    108.3449         0.002300   
     65. D(H  13,O  11,C   1,O  10)   -107.4616         0.002300   
     66. D(H  12,O  11,C   1,C   0)   -151.7840         0.002300   
     67. D(O   5,H  13,O  11,H  12)   -105.6698         0.037485   
     68. D(O   5,H  13,O  11,C   1)     -9.0241         0.037485   
     69. D(O  11,H  13,O   5,C   6)    115.2956         0.029377   
     70. D(O  11,H  13,O   5,C   1)      9.0145         0.029377   
    -----------------------------------------------------------------

Number of atoms                         .... 14
Number of degrees of freedom            .... 70

         *************************************************************
         *                GEOMETRY OPTIMIZATION CYCLE   1            *
         *************************************************************
---------------------------------
CARTESIAN COORDINATES (ANGSTROEM)
---------------------------------
  C     -1.910236   -0.258040    0.011465
  C     -0.629106    0.418228   -0.381315
  H     -1.866785   -0.623488    1.049792
  H     -2.078666   -1.108108   -0.677950
  H     -2.741566    0.465639   -0.098053
  O      0.635236   -0.629240    0.455271
  C      1.829280   -0.759129   -0.306862
  H      1.821537   -0.063833   -1.178430
  H      1.926751   -1.798005   -0.688404
  H      2.719299   -0.529978    0.318595
  O     -0.264091    0.910381   -1.409773
  O     -0.222323    1.400607    1.107800
  H      0.283441    2.144810    0.717255
  H      0.497229    0.430157    1.080608

----------------------------
CARTESIAN COORDINATES (A.U.)
----------------------------
  NO LB      ZA    FRAG     MASS         X           Y           Z
   0 C     6.0000    0    12.011   -3.609823   -0.487624    0.021665
   1 C     6.0000    0    12.011   -1.188838    0.790337   -0.720580
   2 H     1.0000    0     1.008   -3.527713   -1.178222    1.983820
   3 H     1.0000    0     1.008   -3.928109   -2.094022   -1.281140
   4 H     1.0000    0     1.008   -5.180809    0.879930   -0.185293
   5 O     8.0000    0    15.999    1.200421   -1.189092    0.860338
   6 C     6.0000    0    12.011    3.456839   -1.434546   -0.579884
   7 H     1.0000    0     1.008    3.442206   -0.120628   -2.226909
   8 H     1.0000    0     1.008    3.641033   -3.397738   -1.300895
   9 H     1.0000    0     1.008    5.138730   -1.001512    0.602057
  10 O     8.0000    0    15.999   -0.499060    1.720372   -2.664086
  11 O     8.0000    0    15.999   -0.420129    2.646764    2.093439
  12 H     1.0000    0     1.008    0.535625    4.053104    1.355416
  13 H     1.0000    0     1.008    0.939626    0.812878    2.042053

--------------------------------
INTERNAL COORDINATES (ANGSTROEM)
--------------------------------
 C      0   0   0     0.000000000000     0.00000000     0.00000000
 C      1   0   0     1.500968711533     0.00000000     0.00000000
 H      1   2   0     1.101619116014   111.25070612     0.00000000
 H      1   2   3     1.107374423415   108.22627750   239.33387353
 H      1   2   3     1.107616445509   108.68570958   121.07197082
 O      2   1   3     1.842722345218   102.16453640    37.79708831
 C      6   2   1     1.422483833654   112.61928521   144.48502903
 H      7   6   2     1.114956033427   110.85763943     9.37250635
 H      7   6   2     1.111008014852   110.06110637   249.48378310
 H      7   6   2     1.111682993407   110.59581472   129.72839419
 O      2   1   3     1.197154139873   132.08850774   177.79954220
 O      2   1   3     1.829755195875   102.63185649   318.10845767
 H     12   2   1     0.980897519710   101.41640252   208.21596735
 H     12   2   1     1.208415716522    71.51236031   103.85704015

---------------------------
INTERNAL COORDINATES (A.U.)
---------------------------
 C      0   0   0     0.000000000000     0.00000000     0.00000000
 C      1   0   0     2.836419800382     0.00000000     0.00000000
 H      1   2   0     2.081758433159   111.25070612     0.00000000
 H      1   2   3     2.092634387963   108.22627750   239.33387353
 H      1   2   3     2.093091743439   108.68570958   121.07197082
 O      2   1   3     3.482240573320   102.16453640    37.79708831
 C      6   2   1     2.688104875536   112.61928521   144.48502903
 H      7   6   2     2.106961554541   110.85763943     9.37250635
 H      7   6   2     2.099500880662   110.06110637   249.48378310
 H      7   6   2     2.100776405276   110.59581472   129.72839419
 O      2   1   3     2.262293464451   132.08850774   177.79954220
 O      2   1   3     3.457736212323   102.63185649   318.10845767
 H     12   2   1     1.853627677694   101.41640252   208.21596735
 H     12   2   1     2.283574760152    71.51236031   103.85704015

---------------------
BASIS SET INFORMATION
---------------------
There are 3 groups of distinct atoms

 Group   1 Type C   : 7s4p1d contracted to 3s2p1d pattern {511/31/1}
 Group   2 Type H   : 4s1p contracted to 2s1p pattern {31/1}
 Group   3 Type O   : 7s4p1d contracted to 3s2p1d pattern {511/31/1}

Atom   0C    basis set group =>   1
Atom   1C    basis set group =>   1
Atom   2H    basis set group =>   2
Atom   3H    basis set group =>   2
Atom   4H    basis set group =>   2
Atom   5O    basis set group =>   3
Atom   6C    basis set group =>   1
Atom   7H    basis set group =>   2
Atom   8H    basis set group =>   2
Atom   9H    basis set group =>   2
Atom  10O    basis set group =>   3
Atom  11O    basis set group =>   3
Atom  12H    basis set group =>   2
Atom  13H    basis set group =>   2
---------------------------------
AUXILIARY/J BASIS SET INFORMATION
---------------------------------
There are 3 groups of distinct atoms

 Group   1 Type C   : 12s5p4d2f1g contracted to 6s4p3d1f1g pattern {711111/2111/211/2/1}
 Group   2 Type H   : 5s2p1d contracted to 3s1p1d pattern {311/2/1}
 Group   3 Type O   : 12s5p4d2f1g contracted to 6s4p3d1f1g pattern {711111/2111/211/2/1}

Atom   0C    basis set group =>   1
Atom   1C    basis set group =>   1
Atom   2H    basis set group =>   2
Atom   3H    basis set group =>   2
Atom   4H    basis set group =>   2
Atom   5O    basis set group =>   3
Atom   6C    basis set group =>   1
Atom   7H    basis set group =>   2
Atom   8H    basis set group =>   2
Atom   9H    basis set group =>   2
Atom  10O    basis set group =>   3
Atom  11O    basis set group =>   3
Atom  12H    basis set group =>   2
Atom  13H    basis set group =>   2


           ************************************************************
           *        Program running with 6 parallel MPI-processes     *
           *              working on a common directory               *
           ************************************************************
------------------------------------------------------------------------------
                           ORCA GTO INTEGRAL CALCULATION
                           -- RI-GTO INTEGRALS CHOSEN --
------------------------------------------------------------------------------
------------------------------------------------------------------------------
                   ___                                                        
                  /   \      - P O W E R E D   B Y -                         
                 /     \                                                     
                 |  |  |   _    _      __       _____    __    __             
                 |  |  |  | |  | |    /  \     |  _  \  |  |  /  |          
                  \  \/   | |  | |   /    \    | | | |  |  | /  /          
                 / \  \   | |__| |  /  /\  \   | |_| |  |  |/  /          
                |  |  |   |  __  | /  /__\  \  |    /   |      \           
                |  |  |   | |  | | |   __   |  |    \   |  |\   \          
                \     /   | |  | | |  |  |  |  | |\  \  |  | \   \       
                 \___/    |_|  |_| |__|  |__|  |_| \__\ |__|  \__/        
                                                                              
                      - O R C A' S   B I G   F R I E N D -                    
                                      &                                       
                       - I N T E G R A L  F E E D E R -                       
                                                                              
 v1 FN, 2020, v2 2021                                                         
------------------------------------------------------------------------------


Reading SHARK input file ts.SHARKINP.tmp ... ok
----------------------
SHARK INTEGRAL PACKAGE
----------------------

Number of atoms                             ...     14
Number of basis functions                   ...    124
Number of shells                            ...     60
Maximum angular momentum                    ...      2
Integral batch strategy                     ... SHARK/LIBINT Hybrid
RI-J (if used) integral strategy            ... SPLIT-RIJ (Revised 2003 algorithm where possible)
Printlevel                                  ...      1
Contraction scheme used                     ... SEGMENTED contraction
Coulomb Range Separation                    ... NOT USED
Exchange Range Separation                   ... NOT USED
Finite Nucleus Model                        ... NOT USED
Auxiliary Coulomb fitting basis             ... AVAILABLE
   # of basis functions in Aux-J            ...    382
   # of shells in Aux-J                     ...    130
   Maximum angular momentum in Aux-J        ...      4
Auxiliary J/K fitting basis                 ... NOT available
Auxiliary Correlation fitting basis         ... NOT available
Auxiliary 'external' fitting basis          ... NOT available
Integral threshold                          ...     2.500000e-11
Primitive cut-off                           ...     2.500000e-12
Primitive pair pre-selection threshold      ...     2.500000e-12

Calculating pre-screening integrals         ... done (  0.0 sec) Dimension = 60
Organizing shell pair data                  ... done (  0.0 sec)
Shell pair information
Total number of shell pairs                 ...      1830
Shell pairs after pre-screening             ...      1789
Total number of primitive shell pairs       ...      6430
Primitive shell pairs kept                  ...      4814
          la=0 lb=0:    580 shell pairs
          la=1 lb=0:    662 shell pairs
          la=1 lb=1:    205 shell pairs
          la=2 lb=0:    201 shell pairs
          la=2 lb=1:    120 shell pairs
          la=2 lb=2:     21 shell pairs

Calculating one electron integrals          ... done (  0.0 sec)
Calculating RI/J V-Matrix + Cholesky decomp.... done (  0.0 sec)
Calculating Nuclear repulsion               ... done (  0.0 sec) ENN=    262.982667584183 Eh

SHARK setup successfully completed in   0.1 seconds

Maximum memory used throughout the entire GTOINT-calculation: 10.4 MB


           ************************************************************
           *        Program running with 6 parallel MPI-processes     *
           *              working on a common directory               *
           ************************************************************
-------------------------------------------------------------------------------
                                 ORCA SCF
-------------------------------------------------------------------------------

------------
SCF SETTINGS
------------
Hamiltonian:
 Density Functional     Method          .... DFT(GTOs)
 Exchange Functional    Exchange        .... B88
   X-Alpha parameter    XAlpha          ....  0.666667
   Becke's b parameter  XBeta           ....  0.004200
 Correlation Functional Correlation     .... LYP
 Gradients option       PostSCFGGA      .... off
   Density functional embedding theory  .... OFF
   NL short-range parameter             ....  4.000000
 RI-approximation to the Coulomb term is turned on
   Number of AuxJ basis functions       .... 382


General Settings:
 Integral files         IntName         .... ts
 Hartree-Fock type      HFTyp           .... RHF
 Total Charge           Charge          ....    0
 Multiplicity           Mult            ....    1
 Number of Electrons    NEL             ....   50
 Basis Dimension        Dim             ....  124
 Nuclear Repulsion      ENuc            ....    262.9826675842 Eh

Convergence Acceleration:
 DIIS                   CNVDIIS         .... on
   Start iteration      DIISMaxIt       ....    12
   Startup error        DIISStart       ....  0.200000
   # of expansion vecs  DIISMaxEq       ....     5
   Bias factor          DIISBfac        ....   1.050
   Max. coefficient     DIISMaxC        ....  10.000
 Trust-Rad. Augm. Hess. CNVTRAH         .... auto
   Auto Start mean grad. ratio tolernc. ....  1.125000
   Auto Start start iteration           ....    20
   Auto Start num. interpolation iter.  ....    10
   Max. Number of Micro iterations      ....    16
   Max. Number of Macro iterations      .... Maxiter - #DIIS iter
   Number of Davidson start vectors     ....     2
   Converg. threshold I  (grad. norm)   ....   1.000e-05
   Converg. threshold II (energy diff.) ....   1.000e-08
   Grad. Scal. Fac. for Micro threshold ....   0.100
   Minimum threshold for Micro iter.    ....   0.010
   NR start threshold (gradient norm)   ....   0.001
   Initial trust radius                 ....   0.400
   Minimum AH scaling param. (alpha)    ....   1.000
   Maximum AH scaling param. (alpha)    .... 1000.000
   Orbital update algorithm             .... Taylor
   White noise on init. David. guess    .... on
   Maximum white noise                  ....   0.010
   Quad. conv. algorithm                .... NR
 SOSCF                  CNVSOSCF        .... on
   Start iteration      SOSCFMaxIt      ....   150
   Startup grad/error   SOSCFStart      ....  0.003300
 Level Shifting         CNVShift        .... on
   Level shift para.    LevelShift      ....    0.2500
   Turn off err/grad.   ShiftErr        ....    0.0010
 Zerner damping         CNVZerner       .... off
 Static damping         CNVDamp         .... on
   Fraction old density DampFac         ....    0.7000
   Max. Damping (<1)    DampMax         ....    0.9800
   Min. Damping (>=0)   DampMin         ....    0.0000
   Turn off err/grad.   DampErr         ....    0.1000
 Fernandez-Rico         CNVRico         .... off

SCF Procedure:
 Maximum # iterations   MaxIter         ....   125
 SCF integral mode      SCFMode         .... Direct
   Integral package                     .... SHARK and LIBINT hybrid scheme
 Reset frequency        DirectResetFreq ....    20
 Integral Threshold     Thresh          ....  2.500e-11 Eh
 Primitive CutOff       TCut            ....  2.500e-12 Eh

Convergence Tolerance:
 Convergence Check Mode ConvCheckMode   .... Total+1el-Energy
 Convergence forced     ConvForced      .... 0
 Energy Change          TolE            ....  1.000e-08 Eh
 1-El. energy change                    ....  1.000e-05 Eh
 Orbital Gradient       TolG            ....  1.000e-05
 Orbital Rotation angle TolX            ....  1.000e-05
 DIIS Error             TolErr          ....  5.000e-07


Diagonalization of the overlap matrix:
Smallest eigenvalue                        ... 2.787e-03
Time for diagonalization                   ...    0.002 sec
Threshold for overlap eigenvalues          ... 1.000e-08
Number of eigenvalues below threshold      ... 0
Time for construction of square roots      ...    0.001 sec
Total time needed                          ...    0.003 sec

Time for model grid setup =    0.052 sec

------------------------------
INITIAL GUESS: MODEL POTENTIAL
------------------------------
Loading Hartree-Fock densities                     ... done
Calculating cut-offs                               ... done
Initializing the effective Hamiltonian             ... done
Setting up the integral package (SHARK)            ... done
Starting the Coulomb interaction                   ... done (   0.0 sec)
Reading the grid                                   ... done
Mapping shells                                     ... done
Starting the XC term evaluation                    ... done (   0.0 sec)
  promolecular density results
     # of electrons  =     49.999199292
     EX              =    -42.309286246
     EC              =     -1.700293136
     EX+EC           =    -44.009579382
Transforming the Hamiltonian                       ... done (   0.0 sec)
Diagonalizing the Hamiltonian                      ... done (   0.0 sec)
Back transforming the eigenvectors                 ... done (   0.0 sec)
Now organizing SCF variables                       ... done
                      ------------------
                      INITIAL GUESS DONE (   0.1 sec)
                      ------------------
-------------------
DFT GRID GENERATION
-------------------

General Integration Accuracy     IntAcc      ... 4.388
Radial Grid Type                 RadialGrid  ... OptM3 with GC (2021)
Angular Grid (max. ang.)         AngularGrid ... 4 (Lebedev-302)
Angular grid pruning method      GridPruning ... 4 (adaptive)
Weight generation scheme         WeightScheme... Becke
Basis function cutoff            BFCut       ... 1.0000e-11
Integration weight cutoff        WCut        ... 1.0000e-14
Angular grids for H and He will be reduced by one unit
Partially contracted basis set               ... off
Rotationally invariant grid construction     ... off

Total number of grid points                  ...    62255
Total number of batches                      ...      980
Average number of points per batch           ...       63
Average number of grid points per atom       ...     4447
Time for grid setup =    0.316 sec

--------------
SCF ITERATIONS
--------------
ITER       Energy         Delta-E        Max-DP      RMS-DP      [F,P]     Damp
               ***  Starting incremental Fock matrix formation  ***
  0   -344.1416137845   0.000000000000 0.10256057  0.00377205  0.2452446 0.7000
  1   -344.2716727515  -0.130058967026 0.04227800  0.00214937  0.0823519 0.7000
                               ***Turning on DIIS***
  2   -344.3064431581  -0.034770406641 0.05437866  0.00276376  0.0263154 0.0000
  3   -344.3792979304  -0.072854772300 0.03082691  0.00145760  0.0466349 0.0000
  4   -344.3896295199  -0.010331589505 0.02110461  0.00052863  0.0202813 0.0000
  5   -344.3917621075  -0.002132587621 0.00505456  0.00016912  0.0036151 0.0000
  6   -344.3918535254  -0.000091417843 0.00227720  0.00007031  0.0039986 0.0000
                      *** Initiating the SOSCF procedure ***
                           *** Shutting down DIIS ***
                      *** Re-Reading the Fockian *** 
                      *** Removing any level shift *** 
ITER      Energy       Delta-E        Grad      Rot      Max-DP    RMS-DP
  7   -344.39188141  -0.0000278866  0.000117  0.000117  0.000704  0.000032
               *** Restarting incremental Fock matrix formation ***
  8   -344.39188188  -0.0000004727  0.000150  0.000332  0.000810  0.000035
  9   -344.39187995   0.0000019354  0.000240  0.000199  0.000519  0.000022
 10   -344.39188291  -0.0000029629  0.000059  0.000131  0.000420  0.000008
 11   -344.39188272   0.0000001888  0.000123  0.000089  0.000286  0.000005
 12   -344.39188296  -0.0000002381  0.000014  0.000056  0.000065  0.000002
 13   -344.39188294   0.0000000196  0.000044  0.000044  0.000049  0.000002
                  ***Gradient check signals convergence***
              ***Rediagonalizing the Fockian in SOSCF/NRSCF***

               *****************************************************
               *                     SUCCESS                       *
               *           SCF CONVERGED AFTER  14 CYCLES          *
               *****************************************************


----------------
TOTAL SCF ENERGY
----------------

Total Energy       :         -344.39188296 Eh           -9371.37957 eV

Components:
Nuclear Repulsion  :          262.98266758 Eh            7156.12220 eV
Electronic Energy  :         -607.37455055 Eh          -16527.50176 eV
One Electron Energy:         -992.08905286 Eh          -26996.11558 eV
Two Electron Energy:          384.71450232 Eh           10468.61382 eV

Virial components:
Potential Energy   :         -685.77789189 Eh          -18660.96514 eV
Kinetic Energy     :          341.38600893 Eh            9289.58558 eV
Virial Ratio       :            2.00880491


DFT components:
N(Alpha)           :       25.000000678447 electrons
N(Beta)            :       25.000000678447 electrons
N(Total)           :       50.000001356894 electrons
E(X)               :      -43.073250133006 Eh       
E(C)               :       -1.710477244274 Eh       
E(XC)              :      -44.783727377280 Eh       
DFET-embed. en.    :        0.000000000000 Eh       

---------------
SCF CONVERGENCE
---------------

  Last Energy change         ...   -2.1510e-08  Tolerance :   1.0000e-08
  Last MAX-Density change    ...    1.7291e-05  Tolerance :   1.0000e-07
  Last RMS-Density change    ...    4.6388e-07  Tolerance :   5.0000e-09
  Last Orbital Gradient      ...    2.2752e-06  Tolerance :   1.0000e-05
  Last Orbital Rotation      ...    3.8931e-06  Tolerance :   1.0000e-05

             **** THE GBW FILE WAS UPDATED (ts.gbw) ****
             **** DENSITY ts.scfp WAS UPDATED ****
             **** ENERGY FILE WAS UPDATED (ts.en.tmp) ****
             **** THE GBW FILE WAS UPDATED (ts.gbw) ****
             **** DENSITY ts.scfp WAS UPDATED ****
----------------
ORBITAL ENERGIES
----------------

  NO   OCC          E(Eh)            E(eV) 
   0   2.0000     -18.789942      -511.3003 
   1   2.0000     -18.789303      -511.2829 
   2   2.0000     -18.780832      -511.0524 
   3   2.0000     -10.058187      -273.6972 
   4   2.0000      -9.965202      -271.1669 
   5   2.0000      -9.944489      -270.6033 
   6   2.0000      -0.964895       -26.2561 
   7   2.0000      -0.902503       -24.5583 
   8   2.0000      -0.861902       -23.4536 
   9   2.0000      -0.671874       -18.2826 
  10   2.0000      -0.591281       -16.0896 
  11   2.0000      -0.492851       -13.4111 
  12   2.0000      -0.452710       -12.3189 
  13   2.0000      -0.423338       -11.5196 
  14   2.0000      -0.402326       -10.9479 
  15   2.0000      -0.396987       -10.8026 
  16   2.0000      -0.375709       -10.2236 
  17   2.0000      -0.372345       -10.1320 
  18   2.0000      -0.356070        -9.6892 
  19   2.0000      -0.339216        -9.2305 
  20   2.0000      -0.310038        -8.4366 
  21   2.0000      -0.301661        -8.2086 
  22   2.0000      -0.242515        -6.5992 
  23   2.0000      -0.233777        -6.3614 
  24   2.0000      -0.219538        -5.9739 
  25   0.0000      -0.000681        -0.0185 
  26   0.0000       0.004880         0.1328 
  27   0.0000       0.028028         0.7627 
  28   0.0000       0.063989         1.7412 
  29   0.0000       0.067164         1.8276 
  30   0.0000       0.101690         2.7671 
  31   0.0000       0.108685         2.9575 
  32   0.0000       0.111852         3.0436 
  33   0.0000       0.117459         3.1962 
  34   0.0000       0.140544         3.8244 
  35   0.0000       0.192092         5.2271 
  36   0.0000       0.202795         5.5183 
  37   0.0000       0.246745         6.7143 
  38   0.0000       0.390907        10.6371 
  39   0.0000       0.422116        11.4864 
  40   0.0000       0.427329        11.6282 
  41   0.0000       0.437784        11.9127 
  42   0.0000       0.442165        12.0319 
  43   0.0000       0.466643        12.6980 
  44   0.0000       0.508390        13.8340 
  45   0.0000       0.538181        14.6447 
  46   0.0000       0.544540        14.8177 
  47   0.0000       0.567920        15.4539 
  48   0.0000       0.585055        15.9201 
  49   0.0000       0.595973        16.2173 
  50   0.0000       0.598865        16.2960 
  51   0.0000       0.604213        16.4415 
  52   0.0000       0.613748        16.7009 
  53   0.0000       0.619775        16.8649 
  54   0.0000       0.638164        17.3653 
  55   0.0000       0.680595        18.5199 
  56   0.0000       0.720646        19.6098 
  57   0.0000       0.836702        22.7678 
  58   0.0000       0.854085        23.2408 
  59   0.0000       0.901461        24.5300 
  60   0.0000       0.931826        25.3563 
  61   0.0000       0.961517        26.1642 
  62   0.0000       0.999574        27.1998 
  63   0.0000       1.032855        28.1054 
  64   0.0000       1.047378        28.5006 
  65   0.0000       1.087539        29.5934 
  66   0.0000       1.125133        30.6164 
  67   0.0000       1.211714        32.9724 
  68   0.0000       1.246210        33.9111 
  69   0.0000       1.263131        34.3715 
  70   0.0000       1.299037        35.3486 
  71   0.0000       1.352037        36.7908 
  72   0.0000       1.390187        37.8289 
  73   0.0000       1.438935        39.1554 
  74   0.0000       1.457934        39.6724 
  75   0.0000       1.466519        39.9060 
  76   0.0000       1.496015        40.7086 
  77   0.0000       1.551272        42.2123 
  78   0.0000       1.584982        43.1296 
  79   0.0000       1.613565        43.9073 
  80   0.0000       1.646473        44.8028 
  81   0.0000       1.687494        45.9191 
  82   0.0000       1.694627        46.1131 
  83   0.0000       1.700708        46.2786 
  84   0.0000       1.727401        47.0050 
  85   0.0000       1.734901        47.2090 
  86   0.0000       1.779751        48.4295 
  87   0.0000       1.786737        48.6196 
  88   0.0000       1.837320        49.9960 
  89   0.0000       1.856241        50.5109 
  90   0.0000       1.885970        51.3199 
  91   0.0000       1.971370        53.6437 
  92   0.0000       1.980894        53.9029 
  93   0.0000       2.061009        56.0829 
  94   0.0000       2.091801        56.9208 
  95   0.0000       2.123676        57.7882 
  96   0.0000       2.182821        59.3976 
  97   0.0000       2.238821        60.9214 
  98   0.0000       2.265033        61.6347 
  99   0.0000       2.292328        62.3774 
 100   0.0000       2.326311        63.3021 
 101   0.0000       2.416130        65.7462 
 102   0.0000       2.536701        69.0272 
 103   0.0000       2.544151        69.2299 
 104   0.0000       2.562914        69.7404 
 105   0.0000       2.590559        70.4927 
 106   0.0000       2.623867        71.3991 
 107   0.0000       2.645631        71.9913 
 108   0.0000       2.734156        74.4002 
 109   0.0000       2.747135        74.7533 
 110   0.0000       2.799816        76.1869 
 111   0.0000       2.813354        76.5552 
 112   0.0000       2.862786        77.9004 
 113   0.0000       2.879528        78.3559 
 114   0.0000       2.895663        78.7950 
 115   0.0000       2.961795        80.5945 
 116   0.0000       2.981973        81.1436 
 117   0.0000       3.126122        85.0661 
 118   0.0000       3.203615        87.1748 
 119   0.0000       3.223671        87.7206 
 120   0.0000       3.273673        89.0812 
 121   0.0000       3.522520        95.8527 
 122   0.0000       3.544471        96.4500 
 123   0.0000       3.735637       101.6519 

                    ********************************
                    * MULLIKEN POPULATION ANALYSIS *
                    ********************************

-----------------------
MULLIKEN ATOMIC CHARGES
-----------------------
   0 C :    0.158524
   1 C :    0.018122
   2 H :    0.012202
   3 H :    0.027521
   4 H :    0.027553
   5 O :   -0.387194
   6 C :    0.179105
   7 H :    0.005246
   8 H :    0.003612
   9 H :    0.000731
  10 O :   -0.134805
  11 O :   -0.286755
  12 H :    0.159660
  13 H :    0.216479
Sum of atomic charges:    0.0000000

--------------------------------
MULLIKEN REDUCED ORBITAL CHARGES
--------------------------------
  0 C s       :     2.909104  s :     2.909104
      pz      :     0.989108  p :     2.908046
      px      :     0.936767
      py      :     0.982171
      dz2     :     0.005824  d :     0.024327
      dxz     :     0.002162
      dyz     :     0.005619
      dx2y2   :     0.003600
      dxy     :     0.007121
  1 C s       :     3.226592  s :     3.226592
      pz      :     0.850081  p :     2.655773
      px      :     0.952264
      py      :     0.853427
      dz2     :     0.026480  d :     0.099514
      dxz     :     0.024150
      dyz     :     0.024274
      dx2y2   :     0.010260
      dxy     :     0.014350
  2 H s       :     0.965391  s :     0.965391
      pz      :     0.012666  p :     0.022407
      px      :     0.004047
      py      :     0.005695
  3 H s       :     0.949596  s :     0.949596
      pz      :     0.008124  p :     0.022883
      px      :     0.004703
      py      :     0.010056
  4 H s       :     0.949566  s :     0.949566
      pz      :     0.005319  p :     0.022881
      px      :     0.009371
      py      :     0.008190
  5 O s       :     3.807512  s :     3.807512
      pz      :     1.528464  p :     4.568965
      px      :     1.370147
      py      :     1.670354
      dz2     :     0.001272  d :     0.010718
      dxz     :     0.003143
      dyz     :     0.001726
      dx2y2   :     0.002697
      dxy     :     0.001881
  6 C s       :     2.997149  s :     2.997149
      pz      :     0.948064  p :     2.774720
      px      :     0.799227
      py      :     1.027430
      dz2     :     0.005829  d :     0.049025
      dxz     :     0.014449
      dyz     :     0.008899
      dx2y2   :     0.013314
      dxy     :     0.006535
  7 H s       :     0.972737  s :     0.972737
      pz      :     0.009889  p :     0.022017
      px      :     0.003691
      py      :     0.008437
  8 H s       :     0.975733  s :     0.975733
      pz      :     0.005430  p :     0.020655
      px      :     0.003123
      py      :     0.012103
  9 H s       :     0.978206  s :     0.978206
      pz      :     0.006616  p :     0.021063
      px      :     0.008878
      py      :     0.005568
 10 O s       :     3.727151  s :     3.727151
      pz      :     1.366179  p :     4.389196
      px      :     1.546552
      py      :     1.476465
      dz2     :     0.005961  d :     0.018458
      dxz     :     0.004459
      dyz     :     0.005295
      dx2y2   :     0.001416
      dxy     :     0.001327
 11 O s       :     3.747537  s :     3.747537
      pz      :     1.605540  p :     4.530713
      px      :     1.598137
      py      :     1.327036
      dz2     :     0.001758  d :     0.008506
      dxz     :     0.001389
      dyz     :     0.001948
      dx2y2   :     0.000408
      dxy     :     0.003003
 12 H s       :     0.777572  s :     0.777572
      pz      :     0.016898  p :     0.062768
      px      :     0.020440
      py      :     0.025430
 13 H s       :     0.702593  s :     0.702593
      pz      :     0.017842  p :     0.080928
      px      :     0.018497
      py      :     0.044589


                     *******************************
                     * LOEWDIN POPULATION ANALYSIS *
                     *******************************

----------------------
LOEWDIN ATOMIC CHARGES
----------------------
   0 C :   -0.054507
   1 C :    0.149552
   2 H :    0.041803
   3 H :    0.045637
   4 H :    0.045105
   5 O :   -0.173163
   6 C :    0.050857
   7 H :    0.004138
   8 H :    0.011379
   9 H :    0.009736
  10 O :   -0.122536
  11 O :   -0.114236
  12 H :    0.071410
  13 H :    0.034826

-------------------------------
LOEWDIN REDUCED ORBITAL CHARGES
-------------------------------
  0 C s       :     2.851909  s :     2.851909
      pz      :     1.065763  p :     3.134191
      px      :     1.017214
      py      :     1.051215
      dz2     :     0.016426  d :     0.068407
      dxz     :     0.005888
      dyz     :     0.015197
      dx2y2   :     0.010237
      dxy     :     0.020659
  1 C s       :     2.941202  s :     2.941202
      pz      :     0.911871  p :     2.693004
      px      :     0.924034
      py      :     0.857099
      dz2     :     0.058480  d :     0.216243
      dxz     :     0.050620
      dyz     :     0.054725
      dx2y2   :     0.019963
      dxy     :     0.032454
  2 H s       :     0.893812  s :     0.893812
      pz      :     0.038547  p :     0.064385
      px      :     0.011058
      py      :     0.014780
  3 H s       :     0.891229  s :     0.891229
      pz      :     0.022508  p :     0.063133
      px      :     0.012033
      py      :     0.028592
  4 H s       :     0.891705  s :     0.891705
      pz      :     0.011757  p :     0.063190
      px      :     0.027947
      py      :     0.023487
  5 O s       :     3.546626  s :     3.546626
      pz      :     1.547027  p :     4.606172
      px      :     1.408164
      py      :     1.650980
      dz2     :     0.001905  d :     0.020365
      dxz     :     0.006207
      dyz     :     0.003868
      dx2y2   :     0.005236
      dxy     :     0.003148
  6 C s       :     2.858315  s :     2.858315
      pz      :     1.010335  p :     2.973518
      px      :     0.883779
      py      :     1.079404
      dz2     :     0.013167  d :     0.117311
      dxz     :     0.033778
      dyz     :     0.023493
      dx2y2   :     0.033014
      dxy     :     0.013859
  7 H s       :     0.929352  s :     0.929352
      pz      :     0.031815  p :     0.066510
      px      :     0.010044
      py      :     0.024651
  8 H s       :     0.927389  s :     0.927389
      pz      :     0.014653  p :     0.061232
      px      :     0.009127
      py      :     0.037452
  9 H s       :     0.928643  s :     0.928643
      pz      :     0.019282  p :     0.061621
      px      :     0.029284
      py      :     0.013055
 10 O s       :     3.541013  s :     3.541013
      pz      :     1.488538  p :     4.549101
      px      :     1.561375
      py      :     1.499188
      dz2     :     0.011161  d :     0.032421
      dxz     :     0.007475
      dyz     :     0.009733
      dx2y2   :     0.001924
      dxy     :     0.002128
 11 O s       :     3.519100  s :     3.519100
      pz      :     1.624112  p :     4.578882
      px      :     1.605253
      py      :     1.349517
      dz2     :     0.002898  d :     0.016255
      dxz     :     0.002037
      dyz     :     0.003892
      dx2y2   :     0.000691
      dxy     :     0.006736
 12 H s       :     0.755503  s :     0.755503
      pz      :     0.047047  p :     0.173086
      px      :     0.056538
      py      :     0.069500
 13 H s       :     0.680764  s :     0.680764
      pz      :     0.048447  p :     0.284410
      px      :     0.056411
      py      :     0.179552


                      *****************************
                      * MAYER POPULATION ANALYSIS *
                      *****************************

  NA   - Mulliken gross atomic population
  ZA   - Total nuclear charge
  QA   - Mulliken gross atomic charge
  VA   - Mayer's total valence
  BVA  - Mayer's bonded valence
  FA   - Mayer's free valence

  ATOM       NA         ZA         QA         VA         BVA        FA
  0 C      5.8415     6.0000     0.1585     3.8771     3.8771     0.0000
  1 C      5.9819     6.0000     0.0181     4.3774     4.3774    -0.0000
  2 H      0.9878     1.0000     0.0122     1.0185     1.0185    -0.0000
  3 H      0.9725     1.0000     0.0275     1.0034     1.0034     0.0000
  4 H      0.9724     1.0000     0.0276     1.0026     1.0026     0.0000
  5 O      8.3872     8.0000    -0.3872     2.1752     2.1752     0.0000
  6 C      5.8209     6.0000     0.1791     3.9319     3.9319     0.0000
  7 H      0.9948     1.0000     0.0052     1.0208     1.0208    -0.0000
  8 H      0.9964     1.0000     0.0036     0.9821     0.9821     0.0000
  9 H      0.9993     1.0000     0.0007     0.9814     0.9814     0.0000
 10 O      8.1348     8.0000    -0.1348     2.4017     2.4017    -0.0000
 11 O      8.2868     8.0000    -0.2868     2.2302     2.2302     0.0000
 12 H      0.8403     1.0000     0.1597     1.0300     1.0300     0.0000
 13 H      0.7835     1.0000     0.2165     1.0532     1.0532    -0.0000

  Mayer bond orders larger than 0.100000
B(  0-C ,  1-C ) :   1.0596 B(  0-C ,  2-H ) :   0.9302 B(  0-C ,  3-H ) :   0.9444 
B(  0-C ,  4-H ) :   0.9416 B(  1-C ,  5-O ) :   0.5014 B(  1-C , 10-O ) :   2.1174 
B(  1-C , 11-O ) :   0.5469 B(  5-O ,  6-C ) :   1.0077 B(  5-O , 13-H ) :   0.4770 
B(  6-C ,  7-H ) :   0.9417 B(  6-C ,  8-H ) :   0.9740 B(  6-C ,  9-H ) :   0.9704 
B( 11-O , 12-H ) :   0.9705 B( 11-O , 13-H ) :   0.5532 

-------
TIMINGS
-------

Total SCF time: 0 days 0 hours 0 min 3 sec 

Total time                  ....       3.002 sec
Sum of individual times     ....       2.853 sec  ( 95.0%)

Fock matrix formation       ....       2.261 sec  ( 75.3%)
  Split-RI-J                ....       0.716 sec  ( 31.7% of F)
  XC integration            ....       1.499 sec  ( 66.3% of F)
    Basis function eval.    ....       0.635 sec  ( 42.4% of XC)
    Density eval.           ....       0.260 sec  ( 17.3% of XC)
    XC-Functional eval.     ....       0.069 sec  (  4.6% of XC)
    XC-Potential eval.      ....       0.205 sec  ( 13.7% of XC)
Diagonalization             ....       0.031 sec  (  1.0%)
Density matrix formation    ....       0.005 sec  (  0.2%)
Population analysis         ....       0.018 sec  (  0.6%)
Initial guess               ....       0.062 sec  (  2.1%)
Orbital Transformation      ....       0.000 sec  (  0.0%)
Orbital Orthonormalization  ....       0.000 sec  (  0.0%)
DIIS solution               ....       0.070 sec  (  2.3%)
SOSCF solution              ....       0.039 sec  (  1.3%)
Grid generation             ....       0.368 sec  ( 12.3%)

Maximum memory used throughout the entire SCF-calculation: 17.6 MB

-------------------------   --------------------
FINAL SINGLE POINT ENERGY      -344.391882963390
-------------------------   --------------------



           ************************************************************
           *        Program running with 6 parallel MPI-processes     *
           *              working on a common directory               *
           ************************************************************
------------------------------------------------------------------------------
                         ORCA SCF GRADIENT CALCULATION
------------------------------------------------------------------------------

Gradient of the Kohn-Sham DFT energy:
Kohn-Sham wavefunction type      ... RKS
Hartree-Fock exchange scaling    ...    0.000
Number of operators              ...    1
Number of atoms                  ...   14
Basis set dimensions             ...  124
Integral neglect threshold       ... 2.5e-11
Integral primitive cutoff        ... 2.5e-12
SHARK Integral package           ... ON

Nuc. rep. gradient       (SHARK) ... done (  0.0 sec)
HCore & Overlap gradient (SHARK) ... done (  0.0 sec)
RI-J gradient            (SHARK) ... done (  0.2 sec)
Exchange-correlation gradient    ... done

------------------
CARTESIAN GRADIENT
------------------

   1   C   :    0.000660422    0.000041046   -0.000027120
   2   C   :    0.000004115   -0.000095077   -0.000300019
   3   H   :    0.000266078    0.000164912   -0.000106747
   4   H   :    0.000262803    0.000174194    0.000077483
   5   H   :    0.000320881    0.000055568    0.000015887
   6   O   :    0.000053919   -0.000184465    0.000075397
   7   C   :   -0.000699927    0.000392228    0.000018697
   8   H   :   -0.000263718    0.000104038    0.000173146
   9   H   :   -0.000238614    0.000208224    0.000043652
  10   H   :   -0.000286121    0.000096204    0.000006778
  11   O   :    0.000031207   -0.000344326    0.000524515
  12   O   :    0.000104930   -0.000271843   -0.000142227
  13   H   :   -0.000015977   -0.000402578   -0.000163602
  14   H   :   -0.000199998    0.000061876   -0.000195840

Difference to translation invariance:
           :   -0.0000000000    0.0000000000    0.0000000000

Difference to rotation invariance:
           :   -0.0000964569    0.0001114722    0.0000116784

Norm of the cartesian gradient     ...    0.0016187146
RMS gradient                       ...    0.0002497731
MAX gradient                       ...    0.0006999270

-------
TIMINGS
-------

Total SCF gradient time            ...        0.979 sec

One electron gradient       ....       0.022 sec  (  2.2%)
RI-J Coulomb gradient       ....       0.151 sec  ( 15.4%)
XC gradient                 ....       0.714 sec  ( 72.9%)

Maximum memory used throughout the entire SCFGRAD-calculation: 16.1 MB
------------------------------------------------------------------------------
                         ORCA GEOMETRY RELAXATION STEP
------------------------------------------------------------------------------

Reading the OPT-File                    .... done
Getting information on internals        .... done
Copying old internal coords+grads       .... done
Making the new internal coordinates     .... (new redundants).... done
Validating the new internal coordinates .... (new redundants).... done
Calculating the B-matrix                .... done
Calculating the G,G- and P matrices     .... done
Transforming gradient to internals      .... done
Projecting the internal gradient        .... done
Number of atoms                         ....  14
Number of internal coordinates          ....  70
Current Energy                          ....  -344.391882963 Eh
Current gradient norm                   ....     0.001618715 Eh/bohr
Maximum allowed component of the step   ....  0.300
Current trust radius                    ....  0.300
Evaluating the initial hessian          ....  (Almloef) done
Projecting the Hessian                  .... done
Diagonalizing the Hessian               .... done
Dimension of the hessian                ....  70
Lowest eigenvalues of the Hessian:
  0.013673702  0.019569818  0.021144687  0.040092967  0.049119068
Hessian has   0 negative eigenvalues
Taking P-RFO step
Searching for lambda that maximizes along the lowest mode
TS mode is mode number   0 with eigenvalue   0.01367370 and components:
   1.   -0.00000000
   2.   -0.00000000
   3.   -0.00000000
   4.    0.00000000
   5.   -0.00000000
   6.   -0.00000000
   7.    0.00000000
   8.   -0.00000000
   9.   -0.00000000
  10.   -0.00000000
  11.   -0.00000000
  12.    0.00000000
  13.    0.00000000
  14.   -0.00000000
  15.    0.00000000
  16.    0.00000000
  17.   -0.00000000
  18.    0.00000000
  19.    0.00000000
  20.   -0.00000000
  21.   -0.00000000
  22.    0.00000000
  23.    0.00000000
  24.    0.00000000
  25.    0.00000000
  26.   -0.00000000
  27.    0.00000000
  28.   -0.00000000
  29.   -0.00000000
  30.    0.00000000
  31.   -0.00000000
  32.    0.00000000
  33.    0.00000000
  34.   -0.00000000
  35.   -0.00000000
  36.    0.00000000
  37.   -0.00000000
  38.   -0.00000000
  39.   -0.00000000
  40.    0.33333333
  41.    0.33333333
  42.    0.33333333
  43.    0.33333333
  44.    0.33333333
  45.    0.33333333
  46.    0.33333333
  47.    0.33333333
  48.    0.33333333
  49.   -0.00000000
  50.   -0.00000000
  51.   -0.00000000
  52.   -0.00000000
  53.   -0.00000000
  54.   -0.00000000
  55.   -0.00000000
  56.   -0.00000000
  57.   -0.00000000
  58.   -0.00000000
  59.   -0.00000000
  60.   -0.00000000
  61.    0.00000000
  62.    0.00000000
  63.    0.00000000
  64.    0.00000000
  65.    0.00000000
  66.    0.00000000
  67.   -0.00000000
  68.   -0.00000000
  69.    0.00000000
  70.    0.00000000

Lambda that maximizes along the TS mode:       0.01367371
Searching for lambda that minimizes along all other modes
In cycle   1: lambdaN =  -0.00005407   step =   0.00005407
In cycle   2: lambdaN =  -0.00005407   step =   0.00000000
Lambda that minimizes along all other modes:  -0.00005407
Calculated stepsize too large (   0.9002 >    0.3000). Scaled with    0.3333.
The final length of the internal step   ....       0.3000
Converting the step to cartesian space:
 Initial RMS(Int)=    0.0358568583
Transforming coordinates:
 Iter   0:  RMS(Cart)=    0.0490989773 RMS(Int)=    0.7398034431
 Iter   1:  RMS(Cart)=    0.0020284786 RMS(Int)=    0.0015186581
 Iter   2:  RMS(Cart)=    0.0001670909 RMS(Int)=    0.0001210470
 Iter   3:  RMS(Cart)=    0.0000138469 RMS(Int)=    0.0000103538
 Iter   4:  RMS(Cart)=    0.0000011438 RMS(Int)=    0.0000008305
 Iter   5:  RMS(Cart)=    0.0000000946 RMS(Int)=    0.0000000706
done
Storing new coordinates                 .... done

                                .--------------------.
          ----------------------|Geometry convergence|-------------------------
          Item                value                   Tolerance       Converged
          ---------------------------------------------------------------------
          RMS gradient        0.0004157969            0.0001000000      NO
          MAX gradient        0.0015004031            0.0003000000      NO
          RMS step            0.0358568583            0.0020000000      NO
          MAX step            0.0999765947            0.0040000000      NO
          ........................................................
          Max(Bonds)      0.0016      Max(Angles)    0.14
          Max(Dihed)        5.73      Max(Improp)    0.00
          ---------------------------------------------------------------------

The optimization has not yet converged - more geometry cycles are needed


    ---------------------------------------------------------------------------
                         Redundant Internal Coordinates
                            (Angstroem and degrees)

        Definition                    Value    dE/dq     Step     New-Value  comp.(TS mode)
    ----------------------------------------------------------------------------
     1. B(C   1,C   0)                1.5010 -0.001500  0.0006    1.5016   
     2. B(H   2,C   0)                1.1016 -0.000148  0.0001    1.1017   
     3. B(H   3,C   0)                1.1074 -0.000220  0.0001    1.1075   
     4. B(H   4,C   0)                1.1076 -0.000205  0.0001    1.1077   
     5. B(O   5,C   1)                1.8427 -0.001216  0.0016    1.8443   
     6. B(C   6,O   5)                1.4225 -0.001453  0.0005    1.4230   
     7. B(H   7,C   6)                1.1150 -0.000069  0.0000    1.1150   
     8. B(H   8,C   6)                1.1110 -0.000231  0.0001    1.1111   
     9. B(H   9,C   6)                1.1117 -0.000205  0.0001    1.1118   
    10. B(O  10,C   1)                1.1972 -0.000582  0.0001    1.1972   
    11. B(O  11,C   1)                1.8298 -0.000319  0.0007    1.8304   
    12. B(H  12,O  11)                0.9809 -0.000252  0.0001    0.9810   
    13. B(H  13,O  11)                1.2084 -0.000382  0.0005    1.2089   
    14. B(H  13,O   5)                1.2379 -0.000394  0.0004    1.2383   
    15. A(H   2,C   0,H   3)          109.76  0.000259   -0.01    109.75   
    16. A(C   1,C   0,H   4)          108.69 -0.000240    0.01    108.70   
    17. A(C   1,C   0,H   2)          111.25 -0.000350    0.02    111.27   
    18. A(H   3,C   0,H   4)          109.02  0.000278   -0.02    108.99   
    19. A(H   2,C   0,H   4)          109.85  0.000265   -0.01    109.84   
    20. A(C   1,C   0,H   3)          108.23 -0.000211    0.01    108.24   
    21. A(C   0,C   1,O   5)          102.16 -0.000408    0.06    102.22   
    22. A(O  10,C   1,O  11)          114.25  0.000057   -0.02    114.23   
    23. A(C   0,C   1,O  10)          132.09  0.000353   -0.03    132.06   
    24. A(O   5,C   1,O  11)           77.48  0.000002   -0.02     77.46   
    25. A(C   0,C   1,O  11)          102.63 -0.000264    0.01    102.64   
    26. A(O   5,C   1,O  10)          114.49  0.000064    0.00    114.49   
    27. A(C   6,O   5,H  13)          116.26 -0.000487    0.05    116.30   
    28. A(C   1,O   5,H  13)           70.51  0.000280   -0.01     70.50   
    29. A(C   1,O   5,C   6)          112.62 -0.001317    0.14    112.76   
    30. A(H   8,C   6,H   9)          108.40  0.000282   -0.03    108.38   
    31. A(H   7,C   6,H   9)          108.47  0.000213   -0.01    108.46   
    32. A(O   5,C   6,H   9)          110.60 -0.000153    0.01    110.60   
    33. A(H   7,C   6,H   8)          108.38  0.000229   -0.01    108.37   
    34. A(O   5,C   6,H   8)          110.06 -0.000098    0.00    110.07   
    35. A(O   5,C   6,H   7)          110.86 -0.000445    0.03    110.89   
    36. A(H  12,O  11,H  13)          107.06 -0.000188    0.02    107.08   
    37. A(C   1,O  11,H  13)           71.51 -0.000037    0.02     71.53   
    38. A(C   1,O  11,H  12)          101.42 -0.000415    0.03    101.44   
    39. A(O   5,H  13,O  11)          139.91 -0.000291    0.01    139.92   
    40. D(O  10,C   1,C   0,H   4)    -61.13 -0.000118    5.73    -55.40          0.33
    41. D(O  11,C   1,C   0,H   4)     79.18  0.000059    5.73     84.91          0.33
    42. D(O  11,C   1,C   0,H   3)   -162.56  0.000139    5.73   -156.83          0.33
    43. D(O   5,C   1,C   0,H   2)     37.80 -0.000015    5.73     43.53          0.33
    44. D(O  10,C   1,C   0,H   3)     57.13 -0.000037    5.73     62.86          0.33
    45. D(O  11,C   1,C   0,H   2)    -41.89  0.000108    5.73    -36.16          0.33
    46. D(O  10,C   1,C   0,H   2)    177.80 -0.000069    5.73    183.53          0.33
    47. D(O   5,C   1,C   0,H   4)    158.87 -0.000063    5.73    164.60          0.33
    48. D(O   5,C   1,C   0,H   3)    -82.87  0.000017    5.73    -77.14          0.33
    49. D(H  13,O   5,C   1,O  10)    107.25 -0.000101   -0.04    107.22   
    50. D(C   6,O   5,C   1,O  11)   -115.07  0.000003   -0.03   -115.10   
    51. D(C   6,O   5,C   1,O  10)     -3.90  0.000062   -0.05     -3.96   
    52. D(H  13,O   5,C   1,C   0)   -104.36  0.000037   -0.00   -104.36   
    53. D(H  13,O   5,C   1,O  11)     -3.91 -0.000161   -0.01     -3.92   
    54. D(C   6,O   5,C   1,C   0)    144.49  0.000201   -0.02    144.46   
    55. D(H   9,C   6,O   5,H  13)     51.12  0.000117   -0.04     51.07   
    56. D(H   9,C   6,O   5,C   1)    129.73 -0.000269    0.02    129.75   
    57. D(H   8,C   6,O   5,H  13)    170.87  0.000307   -0.07    170.80   
    58. D(H   8,C   6,O   5,C   1)   -110.52 -0.000078   -0.01   -110.52   
    59. D(H   7,C   6,O   5,H  13)    -69.24  0.000244   -0.06    -69.30   
    60. D(H   7,C   6,O   5,C   1)      9.37 -0.000141    0.00      9.37   
    61. D(H  13,O  11,C   1,O   5)      3.99  0.000171    0.01      3.99   
    62. D(H  13,O  11,C   1,C   0)    103.86 -0.000204    0.06    103.92   
    63. D(H  12,O  11,C   1,O  10)     -3.10  0.000022    0.03     -3.07   
    64. D(H  12,O  11,C   1,O   5)    108.34  0.000089    0.03    108.37   
    65. D(H  13,O  11,C   1,O  10)   -107.46  0.000104    0.01   -107.45   
    66. D(H  12,O  11,C   1,C   0)   -151.78 -0.000286    0.08   -151.70   
    67. D(O   5,H  13,O  11,H  12)   -105.67  0.000098   -0.05   -105.72   
    68. D(O   5,H  13,O  11,C   1)     -9.02 -0.000307   -0.02     -9.04   
    69. D(O  11,H  13,O   5,C   6)    115.30 -0.000944    0.16    115.46   
    70. D(O  11,H  13,O   5,C   1)      9.01  0.000330    0.02      9.03   
    ----------------------------------------------------------------------------

         *************************************************************
         *                GEOMETRY OPTIMIZATION CYCLE   2            *
         *************************************************************
---------------------------------
CARTESIAN COORDINATES (ANGSTROEM)
---------------------------------
  C     -1.912561   -0.253722    0.012327
  C     -0.630462    0.425180   -0.375143
  H     -1.906562   -0.542275    1.075545
  H     -2.031999   -1.155449   -0.619461
  H     -2.754602    0.438590   -0.184456
  O      0.635910   -0.635097    0.445548
  C      1.829164   -0.759800   -0.319645
  H      1.822840   -0.055068   -1.183660
  H      1.923552   -1.794786   -0.712715
  H      2.720714   -0.540274    0.307274
  O     -0.267429    0.929643   -1.398431
  O     -0.217520    1.388540    1.125490
  H      0.287931    2.137300    0.743104
  H      0.501024    0.417217    1.084224

----------------------------
CARTESIAN COORDINATES (A.U.)
----------------------------
  NO LB      ZA    FRAG     MASS         X           Y           Z
   0 C     6.0000    0    12.011   -3.614217   -0.479465    0.023294
   1 C     6.0000    0    12.011   -1.191401    0.803474   -0.708917
   2 H     1.0000    0     1.008   -3.602881   -1.024751    2.032485
   3 H     1.0000    0     1.008   -3.839921   -2.183481   -1.170612
   4 H     1.0000    0     1.008   -5.205444    0.828815   -0.348572
   5 O     8.0000    0    15.999    1.201695   -1.200159    0.841964
   6 C     6.0000    0    12.011    3.456620   -1.435814   -0.604041
   7 H     1.0000    0     1.008    3.444669   -0.104063   -2.236793
   8 H     1.0000    0     1.008    3.634986   -3.391655   -1.346837
   9 H     1.0000    0     1.008    5.141405   -1.020970    0.580665
  10 O     8.0000    0    15.999   -0.505367    1.756770   -2.642652
  11 O     8.0000    0    15.999   -0.411054    2.623961    2.126867
  12 H     1.0000    0     1.008    0.544112    4.038912    1.404263
  13 H     1.0000    0     1.008    0.946798    0.788425    2.048887

--------------------------------
INTERNAL COORDINATES (ANGSTROEM)
--------------------------------
 C      0   0   0     0.000000000000     0.00000000     0.00000000
 C      1   0   0     1.501605263813     0.00000000     0.00000000
 H      1   2   0     1.101694918534   111.27182330     0.00000000
 H      1   2   3     1.107489334069   108.23987380   239.33199249
 H      1   2   3     1.107723703132   108.70090725   121.07482851
 O      2   1   3     1.844293799254   102.21173070    43.51436139
 C      6   2   1     1.422999846851   112.76044403   144.44905989
 H      7   6   2     1.114993155057   110.88829291     9.37291511
 H      7   6   2     1.111130243543   110.06510367   249.47597740
 H      7   6   2     1.111791552782   110.60444040   129.74590917
 O      2   1   3     1.197244455939   132.06278118   183.54133803
 O      2   1   3     1.830432249714   102.65179854   323.83312549
 H     12   2   1     0.980989980687   101.44253654   208.28461846
 H     12   2   1     1.208916299891    71.53283089   103.90544696

---------------------------
INTERNAL COORDINATES (A.U.)
---------------------------
 C      0   0   0     0.000000000000     0.00000000     0.00000000
 C      1   0   0     2.837622709861     0.00000000     0.00000000
 H      1   2   0     2.081901679162   111.27182330     0.00000000
 H      1   2   3     2.092851537630   108.23987380   239.33199249
 H      1   2   3     2.093294430972   108.70090725   121.07482851
 O      2   1   3     3.485210191079   102.21173070    43.51436139
 C      6   2   1     2.689079999161   112.76044403   144.44905989
 H      7   6   2     2.107031704255   110.88829291     9.37291511
 H      7   6   2     2.099731859413   110.06510367   249.47597740
 H      7   6   2     2.100981552765   110.60444040   129.74590917
 O      2   1   3     2.262464137080   132.06278118   183.54133803
 O      2   1   3     3.459015658657   102.65179854   323.83312549
 H     12   2   1     1.853802403619   101.44253654   208.28461846
 H     12   2   1     2.284520725627    71.53283089   103.90544696



           ************************************************************
           *        Program running with 6 parallel MPI-processes     *
           *              working on a common directory               *
           ************************************************************
------------------------------------------------------------------------------
                   ___                                                        
                  /   \      - P O W E R E D   B Y -                         
                 /     \                                                     
                 |  |  |   _    _      __       _____    __    __             
                 |  |  |  | |  | |    /  \     |  _  \  |  |  /  |          
                  \  \/   | |  | |   /    \    | | | |  |  | /  /          
                 / \  \   | |__| |  /  /\  \   | |_| |  |  |/  /          
                |  |  |   |  __  | /  /__\  \  |    /   |      \           
                |  |  |   | |  | | |   __   |  |    \   |  |\   \          
                \     /   | |  | | |  |  |  |  | |\  \  |  | \   \       
                 \___/    |_|  |_| |__|  |__|  |_| \__\ |__|  \__/        
                                                                              
                      - O R C A' S   B I G   F R I E N D -                    
                                      &                                       
                       - I N T E G R A L  F E E D E R -                       
                                                                              
 v1 FN, 2020, v2 2021                                                         
------------------------------------------------------------------------------


Reading SHARK input file ts.SHARKINP.tmp ... ok
----------------------
SHARK INTEGRAL PACKAGE
----------------------

Number of atoms                             ...     14
Number of basis functions                   ...    124
Number of shells                            ...     60
Maximum angular momentum                    ...      2
Integral batch strategy                     ... SHARK/LIBINT Hybrid
RI-J (if used) integral strategy            ... SPLIT-RIJ (Revised 2003 algorithm where possible)
Printlevel                                  ...      1
Contraction scheme used                     ... SEGMENTED contraction
Coulomb Range Separation                    ... NOT USED
Exchange Range Separation                   ... NOT USED
Finite Nucleus Model                        ... NOT USED
Auxiliary Coulomb fitting basis             ... AVAILABLE
   # of basis functions in Aux-J            ...    382
   # of shells in Aux-J                     ...    130
   Maximum angular momentum in Aux-J        ...      4
Auxiliary J/K fitting basis                 ... NOT available
Auxiliary Correlation fitting basis         ... NOT available
Auxiliary 'external' fitting basis          ... NOT available
Integral threshold                          ...     2.500000e-11
Primitive cut-off                           ...     2.500000e-12
Primitive pair pre-selection threshold      ...     2.500000e-12

Calculating pre-screening integrals         ... done (  0.0 sec) Dimension = 60
Organizing shell pair data                  ... done (  0.0 sec)
Shell pair information
Total number of shell pairs                 ...      1830
Shell pairs after pre-screening             ...      1788
Total number of primitive shell pairs       ...      6430
Primitive shell pairs kept                  ...      4811
          la=0 lb=0:    580 shell pairs
          la=1 lb=0:    662 shell pairs
          la=1 lb=1:    205 shell pairs
          la=2 lb=0:    201 shell pairs
          la=2 lb=1:    119 shell pairs
          la=2 lb=2:     21 shell pairs

Calculating one electron integrals          ... done (  0.0 sec)
Calculating RI/J V-Matrix + Cholesky decomp.... done (  0.0 sec)
Calculating Nuclear repulsion               ... done (  0.0 sec) ENN=    262.838707558450 Eh

SHARK setup successfully completed in   0.1 seconds

Maximum memory used throughout the entire GTOINT-calculation: 10.5 MB


           ************************************************************
           *        Program running with 6 parallel MPI-processes     *
           *              working on a common directory               *
           ************************************************************

Diagonalization of the overlap matrix:
Smallest eigenvalue                        ... 2.799e-03
Time for diagonalization                   ...    0.002 sec
Threshold for overlap eigenvalues          ... 1.000e-08
Number of eigenvalues below threshold      ... 0
Time for construction of square roots      ...    0.001 sec
Total time needed                          ...    0.009 sec

-------------------
DFT GRID GENERATION
-------------------

General Integration Accuracy     IntAcc      ... 4.388
Radial Grid Type                 RadialGrid  ... OptM3 with GC (2021)
Angular Grid (max. ang.)         AngularGrid ... 4 (Lebedev-302)
Angular grid pruning method      GridPruning ... 4 (adaptive)
Weight generation scheme         WeightScheme... Becke
Basis function cutoff            BFCut       ... 1.0000e-11
Integration weight cutoff        WCut        ... 1.0000e-14
Angular grids for H and He will be reduced by one unit
Partially contracted basis set               ... off
Rotationally invariant grid construction     ... off

Total number of grid points                  ...    62253
Total number of batches                      ...      981
Average number of points per batch           ...       63
Average number of grid points per atom       ...     4447
Time for grid setup =    0.270 sec

--------------
SCF ITERATIONS
--------------
ITER       Energy         Delta-E        Max-DP      RMS-DP      [F,P]     Damp
               ***  Starting incremental Fock matrix formation  ***
  0   -344.3901772881   0.000000000000 0.00648683  0.00014561  0.0215752 0.7000
                      *** Initiating the SOSCF procedure ***
                      *** Re-Reading the Fockian *** 
                      *** Removing any level shift *** 
ITER      Energy       Delta-E        Grad      Rot      Max-DP    RMS-DP
  1   -344.39063541  -0.0004581228  0.001573  0.001573  0.019856  0.000464
               *** Restarting incremental Fock matrix formation ***
  2   -344.39181076  -0.0011753492  0.000573  0.001278  0.002472  0.000083
  3   -344.39182291  -0.0000121460  0.000239  0.000777  0.001192  0.000041
  4   -344.39181845   0.0000044518  0.000562  0.000548  0.000835  0.000031
  5   -344.39182383  -0.0000053787  0.000033  0.000137  0.000226  0.000007
  6   -344.39182372   0.0000001151  0.000101  0.000113  0.000176  0.000005
  7   -344.39182386  -0.0000001382  0.000019  0.000039  0.000099  0.000004
  8   -344.39182384   0.0000000202  0.000029  0.000023  0.000066  0.000003
  9   -344.39182387  -0.0000000324  0.000006  0.000015  0.000040  0.000001
 10   -344.39182386   0.0000000035  0.000013  0.000010  0.000033  0.000001
                  ***Gradient check signals convergence***
              ***Rediagonalizing the Fockian in SOSCF/NRSCF***

               *****************************************************
               *                     SUCCESS                       *
               *           SCF CONVERGED AFTER  11 CYCLES          *
               *****************************************************

Total Energy       :         -344.39182387 Eh           -9371.37796 eV
  Last Energy change         ...   -5.2621e-09  Tolerance :   1.0000e-08
  Last MAX-Density change    ...    5.0710e-06  Tolerance :   1.0000e-07
             **** THE GBW FILE WAS UPDATED (ts.gbw) ****
             **** DENSITY ts.scfp WAS UPDATED ****
             **** ENERGY FILE WAS UPDATED (ts.en.tmp) ****
             **** THE GBW FILE WAS UPDATED (ts.gbw) ****
             **** DENSITY ts.scfp WAS UPDATED ****
Total SCF time: 0 days 0 hours 0 min 2 sec 

Maximum memory used throughout the entire SCF-calculation: 17.5 MB

-------------------------   --------------------
FINAL SINGLE POINT ENERGY      -344.391823869853
-------------------------   --------------------



           ************************************************************
           *        Program running with 6 parallel MPI-processes     *
           *              working on a common directory               *
[...]
      8       0.003899  -0.004815  -0.071004  -0.035416  -0.197543   0.164597
      9      -0.033031   0.040687  -0.545672   0.416469  -0.118124  -0.029323
     10      -0.004192   0.024654  -0.010319  -0.292329  -0.208069   0.270569
     11       0.006578  -0.022648   0.224028   0.217264   0.313165  -0.332752
     12       0.003310  -0.000218  -0.367885   0.114060   0.121720  -0.145272
     13      -0.000349  -0.004095  -0.478592   0.206123   0.132733  -0.176637
     14       0.006003  -0.031190   0.071111   0.586010  -0.372413   0.065280
     15       0.028633  -0.017867   0.000001  -0.006147  -0.011609  -0.011427
     16      -0.008359   0.073548   0.001401   0.003586   0.000518  -0.001473
     17       0.063431   0.013079  -0.000167   0.006451   0.005805   0.007717
     18      -0.071837   0.010912  -0.000370  -0.020048  -0.041021  -0.046732
     19       0.006250  -0.141973  -0.002823  -0.007863  -0.012180  -0.023198
     20      -0.128339  -0.006896   0.002693   0.009105   0.021797   0.024705
     21       0.515728  -0.318347   0.023729   0.207542   0.422432   0.546033
     22       0.024995   0.283748  -0.001167  -0.002829  -0.024754   0.021977
     23      -0.110098   0.320760   0.001961   0.005573  -0.003536   0.038858
     24       0.318730   0.568798  -0.002528   0.040009   0.067063  -0.006057
     25      -0.075757   0.052629   0.003883   0.020709   0.048590   0.041390
     26       0.210555  -0.437360  -0.016461  -0.056254  -0.121144  -0.126984
     27      -0.524886  -0.162771   0.010892   0.064979   0.129556   0.141742
     28       0.022446   0.334274   0.020591   0.087314   0.175015   0.306486
     29       0.507879   0.046460  -0.021576  -0.141693  -0.280122  -0.356365
     30       0.000356   0.001052  -0.003144   0.003039  -0.001650  -0.005398
     31       0.004987   0.004869  -0.005685   0.003671  -0.004976   0.000118
     32      -0.011865   0.001945   0.014756  -0.002629   0.003504   0.006556
     33      -0.007102  -0.006924   0.001463   0.002119   0.000910  -0.001669
     34       0.000448   0.002389   0.001492  -0.000678   0.002054   0.004387
     35       0.003912   0.001276  -0.000682   0.000512   0.001044  -0.000907
     36       0.044134   0.074096  -0.001434  -0.010927  -0.015683  -0.005635
     37      -0.034779  -0.032991   0.008997   0.004820   0.010227   0.005690
     38      -0.003716   0.031668   0.009917  -0.003883  -0.004781  -0.000781
     39       0.053384   0.114039  -0.011067  -0.019695  -0.000251   0.012407
     40       0.031233  -0.043298  -0.014397  -0.031370  -0.047766  -0.077160
     41      -0.015928  -0.055543   0.001999  -0.013618   0.033530   0.024609
                 30         31         32         33         34         35    
      0       0.002338  -0.001914  -0.004103   0.009419   0.046137   0.000382
      1       0.000146  -0.001385  -0.002450   0.005612   0.030094  -0.000436
      2      -0.001965  -0.000254  -0.002388  -0.003257  -0.034992   0.000195
      3      -0.013892   0.009610   0.029769  -0.052447  -0.229464  -0.001759
      4       0.011590  -0.001478   0.013430  -0.034473  -0.254141   0.002315
      5       0.006816   0.000043   0.019665   0.028366   0.471060  -0.001719
      6      -0.004211  -0.002361  -0.008176  -0.005382   0.150458  -0.000639
      7      -0.045512   0.016953  -0.010681  -0.000578   0.066018   0.000959
      8      -0.018172   0.006572  -0.004648  -0.004864  -0.015228  -0.002606
      9      -0.000717   0.003989  -0.026466   0.013254  -0.047420  -0.000002
     10      -0.036488   0.007531  -0.015168  -0.001427   0.018470   0.000129
     11       0.042322  -0.012264   0.018514   0.004952   0.019151   0.000237
     12       0.036901  -0.009148  -0.009387   0.008227  -0.004384  -0.000655
     13       0.038494  -0.007888  -0.006531   0.004510  -0.036174   0.002005
     14      -0.011001   0.011887   0.004322   0.007875  -0.015441   0.000004
     15       0.016520  -0.002490  -0.024487  -0.010718   0.022200   0.003989
     16      -0.013368   0.001079  -0.016130  -0.026439   0.010328  -0.001241
     17      -0.002678   0.013678   0.012422  -0.019934  -0.000345  -0.002269
     18       0.063259   0.014920   0.001352  -0.001281  -0.011496   0.030825
     19      -0.045763   0.020043   0.008340   0.009128  -0.004342   0.010621
     20      -0.019572   0.051450   0.004744   0.009523   0.012555  -0.033809
     21       0.016072   0.003939   0.030436   0.011855   0.095362   0.010990
     22       0.172481  -0.549484   0.087716  -0.002994  -0.048484  -0.451984
     23       0.131184  -0.399321   0.067647  -0.002742  -0.002420   0.586733
     24      -0.684973  -0.071859  -0.039026  -0.046369   0.060201  -0.030061
     25      -0.084176   0.220939  -0.020063   0.003170   0.025675   0.429196
     26      -0.015725  -0.607197   0.109061   0.021095  -0.042644   0.138727
     27      -0.262780  -0.156469   0.079840   0.013391   0.046738  -0.389952
     28       0.594248   0.080067   0.006603   0.013125  -0.011768  -0.105341
     29       0.175627   0.229043  -0.093172  -0.013237  -0.071279  -0.284950
     30       0.002304  -0.000903  -0.002757   0.015534   0.116835  -0.000286
     31      -0.000601   0.000910  -0.000871   0.019050   0.153824  -0.000554
     32      -0.004202   0.001122  -0.005321  -0.036572  -0.314429   0.001003
     33       0.003520  -0.006358  -0.029113  -0.030738   0.023955   0.000447
     34      -0.004500  -0.001470  -0.016180   0.012812   0.007715  -0.000654
     35      -0.002174   0.003226   0.016860  -0.002376  -0.001511  -0.000314
     36      -0.008762   0.046258   0.244434   0.109346  -0.006467  -0.000245
     37       0.003400  -0.031220  -0.177923  -0.049533   0.094173  -0.001594
     38      -0.000040   0.006536   0.019055   0.017407   0.132466   0.000835
     39      -0.062288   0.070935   0.300913   0.835092  -0.560026  -0.006176
     40       0.056149   0.050148   0.432492   0.182784  -0.114374   0.016546
     41       0.014929  -0.131917  -0.763461   0.491412  -0.330160   0.007122
                 36         37         38         39         40         41    
      0      -0.000782   0.047685   0.000874   0.033045   0.022585   0.000128
      1      -0.000337   0.016089   0.000472  -0.081156  -0.024263   0.000097
      2       0.000027   0.006541   0.000056  -0.031396   0.086928   0.000215
      3       0.000268  -0.000783   0.000043   0.000807   0.000834  -0.000205
      4       0.000098  -0.000585   0.000192  -0.001765  -0.000229  -0.000374
      5      -0.000299   0.000607   0.000356  -0.000801   0.001980  -0.001076
      6      -0.000123   0.027468   0.000689   0.005512  -0.045949   0.000621
      7       0.003119  -0.136919  -0.003095  -0.010222   0.322554   0.001358
      8      -0.008810   0.372108   0.008469  -0.016809  -0.859367  -0.001152
      9       0.001904  -0.097992  -0.002427   0.122144  -0.041901   0.000837
     10       0.008687  -0.483838  -0.010135   0.527747  -0.215167   0.000637
     11       0.007389  -0.409687  -0.008564   0.454944  -0.169291  -0.000470
     12       0.007539  -0.483424  -0.008811  -0.525725  -0.197053  -0.000066
     13      -0.007541   0.437389   0.007708   0.458806   0.176153   0.000184
     14       0.000897  -0.047537  -0.000944  -0.059933  -0.009057   0.000108
     15      -0.000112  -0.000141  -0.000728  -0.000274   0.000050  -0.000086
     16      -0.000082   0.000066  -0.000898   0.000361   0.000053   0.000647
     17       0.000347  -0.000118  -0.000193  -0.000072  -0.000303   0.000301
     18      -0.041962  -0.001380   0.036427  -0.000008   0.000018   0.000174
     19       0.056100  -0.000422   0.074653   0.000077  -0.000014  -0.000070
     20      -0.059420  -0.001784   0.045913   0.000236   0.000368  -0.000183
     21       0.006983   0.000060   0.010933  -0.000064   0.000110   0.000135
     22      -0.399657  -0.006650  -0.016046   0.001004   0.002401  -0.000343
     23       0.517160   0.007762   0.053130  -0.001413  -0.002989   0.000595
     24       0.017130  -0.000533   0.055682   0.000021   0.000106  -0.000386
     25      -0.415835   0.006723  -0.736914  -0.001408  -0.001253   0.001064
     26      -0.154797   0.001668  -0.232871  -0.000531  -0.000446   0.000442
     27       0.476064   0.017705  -0.491412  -0.000180  -0.000112  -0.000666
     28       0.150386   0.004650  -0.123738  -0.000166  -0.000094  -0.000038
     29       0.342790   0.012287  -0.360804  -0.000508  -0.000590  -0.000254
     30      -0.000205  -0.000135  -0.000059  -0.000083   0.000353  -0.000048
     31      -0.000046  -0.000098   0.000020   0.000186   0.000343  -0.000116
     32       0.000225   0.000160  -0.000157   0.000132  -0.000797   0.000536
     33      -0.000224  -0.000122  -0.000073  -0.000028   0.000018  -0.030028
     34       0.000196  -0.000027  -0.000077   0.000387   0.000169  -0.048956
     35      -0.000005  -0.000121   0.000047   0.000324  -0.000369   0.024733
     36       0.000363   0.000853   0.001155  -0.000404   0.000029   0.490392
     37       0.000183   0.000448  -0.000117   0.000123  -0.001172   0.774759
     38      -0.000582   0.000567  -0.000050  -0.000068   0.000963  -0.393883
     39       0.004859  -0.000235   0.002854   0.001541  -0.001188  -0.013271
     40      -0.006036  -0.000566   0.000020  -0.003549  -0.000369  -0.004870
     41      -0.001780   0.000163  -0.005538  -0.000943   0.000322   0.001211


-----------
IR SPECTRUM
-----------

 Mode   freq       eps      Int      T**2         TX        TY        TZ
       cm**-1   L/(mol*cm) km/mol    a.u.
----------------------------------------------------------------------------
  7:    113.00   0.000152    0.77  0.000421  ( 0.012038 -0.016607  0.000512)
  8:    134.19   0.000055    0.28  0.000129  ( 0.003013  0.010156  0.004076)
  9:    173.82   0.000230    1.16  0.000414  ( 0.012212 -0.016006 -0.002896)
 10:    219.90   0.000167    0.84  0.000237  (-0.001828  0.014404 -0.005144)
 11:    270.45   0.000126    0.64  0.000146  ( 0.001786 -0.011860 -0.001434)
 12:    319.43   0.005312   26.85  0.005190  (-0.050908  0.006305 -0.050579)
 13:    371.85   0.004308   21.77  0.003615  (-0.004464  0.033410  0.049792)
 14:    428.70   0.025789  130.33  0.018772  ( 0.099125 -0.093152  0.016412)
 15:    511.96   0.024880  125.73  0.015165  (-0.084894 -0.029608 -0.084153)
 16:    581.01   0.003881   19.61  0.002085  ( 0.037124 -0.003706  0.026320)
 17:    626.18   0.003314   16.75  0.001652  (-0.001110 -0.017924  0.036458)
 18:    724.28   0.139310  704.01  0.060023  ( 0.092705 -0.203768 -0.099535)
 19:    831.29   0.019177   96.91  0.007199  ( 0.068442 -0.040787  0.029175)
 20:    954.93   0.012434   62.83  0.004063  (-0.058250  0.007753 -0.024699)
 21:   1011.59   0.042958  217.09  0.013252  ( 0.102169 -0.052287 -0.008921)
 22:   1052.90   0.049979  252.58  0.014813  (-0.018370  0.099225  0.068045)
 23:   1072.55   0.015465   78.16  0.004500  ( 0.036038 -0.056390  0.004596)
 24:   1133.67   0.001035    5.23  0.000285  ( 0.015952 -0.004887 -0.002541)
 25:   1150.64   0.009703   49.04  0.002632  ( 0.028414 -0.040106 -0.014689)
 26:   1340.09   0.001957    9.89  0.000456  (-0.018945 -0.009525 -0.002469)
 27:   1396.75   0.000745    3.76  0.000166  (-0.005889 -0.006855  0.009203)
 28:   1402.52   0.000696    3.52  0.000155  ( 0.003823 -0.004312 -0.011033)
 29:   1407.38   0.001202    6.07  0.000267  ( 0.007104  0.003511 -0.014274)
 30:   1436.16   0.000709    3.58  0.000154  ( 0.003478  0.011449  0.003283)
 31:   1438.20   0.001583    8.00  0.000344  ( 0.002918 -0.001276 -0.018260)
 32:   1477.89   0.007136   36.06  0.001507  ( 0.018069  0.014196 -0.031286)
 33:   1744.11   0.019540   98.75  0.003496  ( 0.025821 -0.010183  0.052209)
 34:   1871.70   0.039647  200.36  0.006610  (-0.009577 -0.028365  0.075591)
 35:   2904.47   0.012063   60.96  0.001296  ( 0.032946 -0.009215 -0.011209)
 36:   2975.50   0.005368   27.13  0.000563  (-0.014125  0.014582 -0.012282)
 37:   2978.51   0.000742    3.75  0.000078  ( 0.008112  0.001165  0.003257)
 38:   2993.87   0.007730   39.06  0.000806  ( 0.008781  0.022749  0.014528)
 39:   3056.86   0.001000    5.05  0.000102  ( 0.004070 -0.008646 -0.003276)
 40:   3105.96   0.000356    1.80  0.000036  ( 0.000005 -0.001817  0.005701)
 41:   3627.98   0.007505   37.93  0.000646  ( 0.006969  0.024407  0.001112)

* The epsilon (eps) is given for a Dirac delta lineshape.
** The dipole moment derivative (T) already includes vibrational overlap.

The first frequency considered to be a vibration is 7
The total number of vibrations considered is 35


--------------------------
THERMOCHEMISTRY AT 298.15K
--------------------------

Temperature         ... 298.15 K
Pressure            ... 1.00 atm
Total Mass          ... 92.09 AMU

Throughout the following assumptions are being made:
  (1) The electronic state is orbitally nondegenerate
  (2) There are no thermally accessible electronically excited states
  (3) Hindered rotations indicated by low frequency modes are not
      treated as such but are treated as vibrations and this may
      cause some error
  (4) All equations used are the standard statistical mechanics
      equations for an ideal gas
  (5) All vibrations are strictly harmonic

freq.     113.00  E(vib)   ...       0.45 
freq.     134.19  E(vib)   ...       0.42 
freq.     173.82  E(vib)   ...       0.38 
freq.     219.90  E(vib)   ...       0.33 
freq.     270.45  E(vib)   ...       0.29 
freq.     319.43  E(vib)   ...       0.25 
freq.     371.85  E(vib)   ...       0.21 
freq.     428.70  E(vib)   ...       0.18 
freq.     511.96  E(vib)   ...       0.14 
freq.     581.01  E(vib)   ...       0.11 
freq.     626.18  E(vib)   ...       0.09 
freq.     724.28  E(vib)   ...       0.06 
freq.     831.29  E(vib)   ...       0.04 
freq.     954.93  E(vib)   ...       0.03 
freq.    1011.59  E(vib)   ...       0.02 
freq.    1052.90  E(vib)   ...       0.02 
freq.    1072.55  E(vib)   ...       0.02 
freq.    1133.67  E(vib)   ...       0.01 
freq.    1150.64  E(vib)   ...       0.01 
freq.    1340.09  E(vib)   ...       0.01 
freq.    1396.75  E(vib)   ...       0.00 
freq.    1402.52  E(vib)   ...       0.00 
freq.    1407.38  E(vib)   ...       0.00 
freq.    1436.16  E(vib)   ...       0.00 
freq.    1438.20  E(vib)   ...       0.00 
freq.    1477.89  E(vib)   ...       0.00 
freq.    1744.11  E(vib)   ...       0.00 
freq.    1871.70  E(vib)   ...       0.00 
freq.    2904.47  E(vib)   ...       0.00 
freq.    2975.50  E(vib)   ...       0.00 
freq.    2978.51  E(vib)   ...       0.00 
freq.    2993.87  E(vib)   ...       0.00 
freq.    3056.86  E(vib)   ...       0.00 
freq.    3105.96  E(vib)   ...       0.00 
freq.    3627.98  E(vib)   ...       0.00 

------------
INNER ENERGY
------------

The inner energy is: U= E(el) + E(ZPE) + E(vib) + E(rot) + E(trans)
    E(el)   - is the total energy from the electronic structure calculation
              = E(kin-el) + E(nuc-el) + E(el-el) + E(nuc-nuc)
    E(ZPE)  - the the zero temperature vibrational energy from the frequency calculation
    E(vib)  - the the finite temperature correction to E(ZPE) due to population
              of excited vibrational states
    E(rot)  - is the rotational thermal energy
    E(trans)- is the translational thermal energy

Summary of contributions to the inner energy U:
Electronic energy                ...   -344.39192003 Eh
Zero point energy                ...      0.10670999 Eh      66.96 kcal/mol
Thermal vibrational correction   ...      0.00492671 Eh       3.09 kcal/mol
Thermal rotational correction    ...      0.00141627 Eh       0.89 kcal/mol
Thermal translational correction ...      0.00141627 Eh       0.89 kcal/mol
-----------------------------------------------------------------------
Total thermal energy                   -344.27745079 Eh


Summary of corrections to the electronic energy:
(perhaps to be used in another calculation)
Total thermal correction                  0.00775925 Eh       4.87 kcal/mol
Non-thermal (ZPE) correction              0.10670999 Eh      66.96 kcal/mol
-----------------------------------------------------------------------
Total correction                          0.11446924 Eh      71.83 kcal/mol


--------
ENTHALPY
--------

The enthalpy is H = U + kB*T
                kB is Boltzmann's constant
Total free energy                 ...   -344.27745079 Eh 
Thermal Enthalpy correction       ...      0.00094421 Eh       0.59 kcal/mol
-----------------------------------------------------------------------
Total Enthalpy                    ...   -344.27650658 Eh


Note: Only C1 symmetry has been detected, increase convergence thresholds 
      if your molecule has a higher symmetry. Symmetry factor of 1.0 is   
      used for the rotational entropy correction. 
 

Note: Rotational entropy computed according to Herzberg 
Infrared and Raman Spectra, Chapter V,1, Van Nostrand Reinhold, 1945 
Point Group:  C1, Symmetry Number:   1  
Rotational constants in cm-1:     0.143385     0.087123     0.081890 

Vibrational entropy computed according to the QRRHO of S. Grimme
Chem.Eur.J. 2012 18 9955


-------
ENTROPY
-------

The entropy contributions are T*S = T*(S(el)+S(vib)+S(rot)+S(trans))
     S(el)   - electronic entropy
     S(vib)  - vibrational entropy
     S(rot)  - rotational entropy
     S(trans)- translational entropy
The entropies will be listed as multiplied by the temperature to get
units of energy

Electronic entropy                ...      0.00000000 Eh      0.00 kcal/mol
Vibrational entropy               ...      0.00836635 Eh      5.25 kcal/mol
Rotational entropy                ...      0.01276117 Eh      8.01 kcal/mol
Translational entropy             ...      0.01875460 Eh     11.77 kcal/mol
-----------------------------------------------------------------------
Final entropy term                ...      0.03988212 Eh     25.03 kcal/mol

In case the symmetry of your molecule has not been determined correctly
or in case you have a reason to use a different symmetry number we print 
out the resulting rotational entropy values for sn=1,12 :
 --------------------------------------------------------
|  sn= 1 | S(rot)=       0.01276117 Eh      8.01 kcal/mol|
|  sn= 2 | S(rot)=       0.01210671 Eh      7.60 kcal/mol|
|  sn= 3 | S(rot)=       0.01172388 Eh      7.36 kcal/mol|
|  sn= 4 | S(rot)=       0.01145226 Eh      7.19 kcal/mol|
|  sn= 5 | S(rot)=       0.01124157 Eh      7.05 kcal/mol|
|  sn= 6 | S(rot)=       0.01106942 Eh      6.95 kcal/mol|
|  sn= 7 | S(rot)=       0.01092388 Eh      6.85 kcal/mol|
|  sn= 8 | S(rot)=       0.01079780 Eh      6.78 kcal/mol|
|  sn= 9 | S(rot)=       0.01068659 Eh      6.71 kcal/mol|
|  sn=10 | S(rot)=       0.01058711 Eh      6.64 kcal/mol|
|  sn=11 | S(rot)=       0.01049712 Eh      6.59 kcal/mol|
|  sn=12 | S(rot)=       0.01041497 Eh      6.54 kcal/mol|
 --------------------------------------------------------


-------------------
GIBBS FREE ENERGY
-------------------

The Gibbs free energy is G = H - T*S

Total enthalpy                    ...   -344.27650658 Eh 
Total entropy correction          ...     -0.03988212 Eh    -25.03 kcal/mol
-----------------------------------------------------------------------
Final Gibbs free energy         ...   -344.31638870 Eh

For completeness - the Gibbs free energy minus the electronic energy
G-E(el)                           ...      0.07553133 Eh     47.40 kcal/mol


Timings for individual modules:

Sum of individual times         ...      134.156 sec (=   2.236 min)
GTO integral calculation        ...       12.107 sec (=   0.202 min)   9.0 %
SCF iterations                  ...       61.053 sec (=   1.018 min)  45.5 %
SCF Gradient evaluation         ...       30.374 sec (=   0.506 min)  22.6 %
Geometry relaxation             ...        0.668 sec (=   0.011 min)   0.5 %
Analytical frequency calculation...       29.953 sec (=   0.499 min)  22.3 %
                             ****ORCA TERMINATED NORMALLY****
TOTAL RUN TIME: 0 days 0 hours 2 minutes 23 seconds 601 msec
