
                                 *****************
                                 * O   R   C   A *
                                 *****************

                                            #,                                       
                                            ###                                      
                                            ####                                     
                                            #####                                    
                                            ######                                   
                                           ########,                                 
                                     ,,################,,,,,                         
                               ,,#################################,,                 
                          ,,##########################################,,             
                       ,#########################################, ''#####,          
                    ,#############################################,,   '####,        
                  ,##################################################,,,,####,       
                ,###########''''           ''''###############################       
              ,#####''   ,,,,##########,,,,          '''####'''          '####       
            ,##' ,,,,###########################,,,                        '##       
           ' ,,###''''                  '''############,,,                           
         ,,##''                                '''############,,,,        ,,,,,,###''
      ,#''                                            '''#######################'''  
     '                                                          ''''####''''         
             ,#######,   #######,   ,#######,      ##                                
            ,#'     '#,  ##    ##  ,#'     '#,    #''#        ######   ,####,        
            ##       ##  ##   ,#'  ##            #'  '#       #        #'  '#        
            ##       ##  #######   ##           ,######,      #####,   #    #        
            '#,     ,#'  ##    ##  '#,     ,#' ,#      #,         ##   #,  ,#        
             '#######'   ##     ##  '#######'  #'      '#     #####' # '####'        



                  #######################################################
                  #                        -***-                        #
                  #          Department of theory and spectroscopy      #
                  #    Directorship and core code : Frank Neese         #
                  #        Max Planck Institute fuer Kohlenforschung    #
                  #                Kaiser Wilhelm Platz 1               #
                  #                 D-45470 Muelheim/Ruhr               #
                  #                      Germany                        #
                  #                                                     #
                  #                  All rights reserved                #
                  #                        -***-                        #
                  #######################################################


                         Program Version 5.0.3 -  RELEASE  -


 With contributions from (in alphabetic order):
   Daniel Aravena         : Magnetic Suceptibility
   Michael Atanasov       : Ab Initio Ligand Field Theory (pilot matlab implementation)
   Alexander A. Auer      : GIAO ZORA, VPT2 properties, NMR spectrum
   Ute Becker             : Parallelization
   Giovanni Bistoni       : ED, misc. LED, open-shell LED, HFLD
   Martin Brehm           : Molecular dynamics
   Dmytro Bykov           : SCF Hessian
   Vijay G. Chilkuri      : MRCI spin determinant printing, contributions to CSF-ICE
   Dipayan Datta          : RHF DLPNO-CCSD density
   Achintya Kumar Dutta   : EOM-CC, STEOM-CC
   Dmitry Ganyushin       : Spin-Orbit,Spin-Spin,Magnetic field MRCI
   Miquel Garcia          : C-PCM and meta-GGA Hessian, CC/C-PCM, Gaussian charge scheme
   Yang Guo               : DLPNO-NEVPT2, F12-NEVPT2, CIM, IAO-localization
   Andreas Hansen         : Spin unrestricted coupled pair/coupled cluster methods
   Benjamin Helmich-Paris : MC-RPA, TRAH-SCF, COSX integrals
   Lee Huntington         : MR-EOM, pCC
   Robert Izsak           : Overlap fitted RIJCOSX, COSX-SCS-MP3, EOM
   Marcus Kettner         : VPT2
   Christian Kollmar      : KDIIS, OOCD, Brueckner-CCSD(T), CCSD density, CASPT2, CASPT2-K
   Simone Kossmann        : Meta GGA functionals, TD-DFT gradient, OOMP2, MP2 Hessian
   Martin Krupicka        : Initial AUTO-CI
   Lucas Lang             : DCDCAS
   Marvin Lechner         : AUTO-CI (C++ implementation), FIC-MRCC
   Dagmar Lenk            : GEPOL surface, SMD
   Dimitrios Liakos       : Extrapolation schemes; Compound Job, initial MDCI parallelization
   Dimitrios Manganas     : Further ROCIS development; embedding schemes
   Dimitrios Pantazis     : SARC Basis sets
   Anastasios Papadopoulos: AUTO-CI, single reference methods and gradients
   Taras Petrenko         : DFT Hessian,TD-DFT gradient, ASA, ECA, R-Raman, ABS, FL, XAS/XES, NRVS
   Peter Pinski           : DLPNO-MP2, DLPNO-MP2 Gradient
   Christoph Reimann      : Effective Core Potentials
   Marius Retegan         : Local ZFS, SOC
   Christoph Riplinger    : Optimizer, TS searches, QM/MM, DLPNO-CCSD(T), (RO)-DLPNO pert. Triples
   Tobias Risthaus        : Range-separated hybrids, TD-DFT gradient, RPA, STAB
   Michael Roemelt        : Original ROCIS implementation
   Masaaki Saitow         : Open-shell DLPNO-CCSD energy and density
   Barbara Sandhoefer     : DKH picture change effects
   Avijit Sen             : IP-ROCIS
   Kantharuban Sivalingam : CASSCF convergence, NEVPT2, FIC-MRCI
   Bernardo de Souza      : ESD, SOC TD-DFT
   Georgi Stoychev        : AutoAux, RI-MP2 NMR, DLPNO-MP2 response
   Willem Van den Heuvel  : Paramagnetic NMR
   Boris Wezisla          : Elementary symmetry handling
   Frank Wennmohs         : Technical directorship


 We gratefully acknowledge several colleagues who have allowed us to
 interface, adapt or use parts of their codes:
   Stefan Grimme, W. Hujo, H. Kruse, P. Pracht,  : VdW corrections, initial TS optimization,
                  C. Bannwarth, S. Ehlert          DFT functionals, gCP, sTDA/sTD-DF
   Ed Valeev, F. Pavosevic, A. Kumar             : LibInt (2-el integral package), F12 methods
   Garnet Chan, S. Sharma, J. Yang, R. Olivares  : DMRG
   Ulf Ekstrom                                   : XCFun DFT Library
   Mihaly Kallay                                 : mrcc  (arbitrary order and MRCC methods)
   Jiri Pittner, Ondrej Demel                    : Mk-CCSD
   Frank Weinhold                                : gennbo (NPA and NBO analysis)
   Christopher J. Cramer and Donald G. Truhlar   : smd solvation model
   Lars Goerigk                                  : TD-DFT with DH, B97 family of functionals
   V. Asgeirsson, H. Jonsson                     : NEB implementation
   FAccTs GmbH                                   : IRC, NEB, NEB-TS, DLPNO-Multilevel, CI-OPT
                                                   MM, QMMM, 2- and 3-layer-ONIOM, Crystal-QMMM,
                                                   LR-CPCM, SF, NACMEs, symmetry and pop. for TD-DFT,
                                                   nearIR, NL-DFT gradient (VV10), updates on ESD,
                                                   ML-optimized integration grids
   S Lehtola, MJT Oliveira, MAL Marques          : LibXC Library
   Liviu Ungur et al                             : ANISO software


 Your calculation uses the libint2 library for the computation of 2-el integrals
 For citations please refer to: http://libint.valeyev.net

 Your ORCA version has been built with support for libXC version: 5.1.0
 For citations please refer to: https://tddft.org/programs/libxc/

 This ORCA versions uses:
   CBLAS   interface :  Fast vector & matrix operations
   LAPACKE interface :  Fast linear algebra routines
   SCALAPACK package :  Parallel linear algebra routines
   Shared memory     :  Shared parallel matrices
   BLAS/LAPACK       :  OpenBLAS 0.3.15  USE64BITINT DYNAMIC_ARCH NO_AFFINITY Zen SINGLE_THREADED
        Core in use  :  Zen
   Copyright (c) 2011-2014, The OpenBLAS Project




***************************************
The coordinates will be read from file: acetone1.xyz
***************************************


Your calculation utilizes the atom-pairwise dispersion correction
with the Becke-Johnson damping scheme (D3BJ)
Cite in your paper:
S.Grimme, S.Ehrlich, L.Goerigk, J Comput Chem, (2011), 32, 1456–1465 
S.Grimme, J.Antony, S.Ehrlich and H.Krieg, J.Chem.Phys., 132, (2010), 154104 
   

================================================================================

----- Orbital basis set information -----
Your calculation utilizes the basis: def2-TZVP
   F. Weigend and R. Ahlrichs, Phys. Chem. Chem. Phys. 7, 3297 (2005).

----- AuxJ basis set information -----
Your calculation utilizes the auxiliary basis: def2/J
   F. Weigend, Phys. Chem. Chem. Phys. 8, 1057 (2006).

================================================================================
                                        WARNINGS
                       Please study these warnings very carefully!
================================================================================

WARNING: Old DensityContainer found on disk!
         Will remove this file - 
         If you want to keep old densities, please start your calculation with a different basename. 



WARNING: Found flag for RIJCOSX approximation but no HF exchange needed!
  ===> : RIJCOSX  will be disabled and Split-RI-J is turned on

WARNING: The environment variable RSH_COMMAND is not set!
  ===> : All Displacements for the Numerical Hessian or Gradient calculation
         will be started on localhost

WARNING: Geometry Optimization
  ===> : Switching off AutoStart
         For restart on a previous wavefunction, please use MOREAD

INFO   : the flag for use of the SHARK integral package has been found!

================================================================================
                                       INPUT FILE
================================================================================
NAME = acetone.inp
|  1> !BLYP D3BJ def2-TZVP def2/J RIJCOSX Opt NumFreq xyzfile
|  2> %geom
|  3> NumHess true
|  4> end
|  5> 
|  6> %Freq
|  7> Temp 298.15
|  8> end
|  9> 
| 10> %pal
| 11> nprocs 6
| 12> end
| 13> 
| 14> *xyzfile 0 1 acetone1.xyz
| 15> 
| 16>                          ****END OF INPUT****
================================================================================

                       *****************************
                       * Geometry Optimization Run *
                       *****************************

Geometry optimization settings:
Update method            Update   .... BFGS
Choice of coordinates    CoordSys .... Z-matrix Internals
Initial Hessian          InHess   .... Almoef's Model

Convergence Tolerances:
Energy Change            TolE     ....  5.0000e-06 Eh
Max. Gradient            TolMAXG  ....  3.0000e-04 Eh/bohr
RMS Gradient             TolRMSG  ....  1.0000e-04 Eh/bohr
Max. Displacement        TolMAXD  ....  4.0000e-03 bohr
RMS Displacement         TolRMSD  ....  2.0000e-03 bohr
Strict Convergence                ....  False
------------------------------------------------------------------------------
                        ORCA OPTIMIZATION COORDINATE SETUP
------------------------------------------------------------------------------

The optimization will be done in new redundant internal coordinates
Making redundant internal coordinates   ...  (new redundants) done
Evaluating the initial hessian          ...  (Almloef) done
Evaluating the coordinates              ...  done
Calculating the B-matrix                .... done
Calculating the G-matrix                .... done
Diagonalizing the G-matrix              .... done
The first mode is                       ....   12
The number of degrees of freedom        ....   24

    -----------------------------------------------------------------
                    Redundant Internal Coordinates


    -----------------------------------------------------------------
         Definition                    Initial Value    Approx d2E/dq
    -----------------------------------------------------------------
      1. B(C   3,H   0)                  1.0938         0.355087   
      2. B(C   4,H   1)                  1.0924         0.356886   
      3. B(C   5,O   2)                  1.2178         1.053381   
      4. B(C   5,C   4)                  1.5057         0.408416   
      5. B(C   5,C   3)                  1.5057         0.408389   
      6. B(H   6,C   4)                  1.0880         0.362708   
      7. B(H   7,C   3)                  1.0881         0.362647   
      8. B(H   8,C   3)                  1.0922         0.357224   
      9. B(H   9,C   4)                  1.0936         0.355324   
     10. A(C   5,C   3,H   8)          110.4714         0.328677   
     11. A(H   0,C   3,H   7)          109.4772         0.290521   
     12. A(H   0,C   3,C   5)          109.0126         0.328352   
     13. A(H   7,C   3,H   8)          110.2840         0.290795   
     14. A(H   0,C   3,H   8)          106.8755         0.289835   
     15. A(C   5,C   3,H   7)          110.6329         0.329496   
     16. A(C   5,C   4,H   6)          110.6479         0.329509   
     17. A(H   1,C   4,H   6)          110.1961         0.290759   
     18. A(H   1,C   4,C   5)          110.2667         0.328630   
     19. A(H   6,C   4,H   9)          109.6119         0.290559   
     20. A(C   5,C   4,H   9)          109.2008         0.328392   
     21. A(H   1,C   4,H   9)          106.8344         0.289822   
     22. A(C   3,C   5,C   4)          116.6632         0.374648   
     23. A(O   2,C   5,C   4)          121.6844         0.440061   
     24. A(O   2,C   5,C   3)          121.6522         0.440056   
     25. D(O   2,C   5,C   3,H   7)      7.6179         0.012356   
     26. D(O   2,C   5,C   3,H   8)    130.0277         0.012356   
     27. D(C   4,C   5,C   3,H   0)     67.0625         0.012356   
     28. D(C   4,C   5,C   3,H   7)   -172.5008         0.012356   
     29. D(C   4,C   5,C   3,H   8)    -50.0910         0.012356   
     30. D(O   2,C   5,C   4,H   1)    128.2099         0.012358   
     31. D(O   2,C   5,C   4,H   6)      6.0404         0.012358   
     32. D(O   2,C   5,C   4,H   9)   -114.6932         0.012358   
     33. D(C   3,C   5,C   4,H   1)    -51.6714         0.012358   
     34. D(C   3,C   5,C   4,H   6)   -173.8408         0.012358   
     35. D(C   3,C   5,C   4,H   9)     65.4256         0.012358   
     36. D(O   2,C   5,C   3,H   0)   -112.8188         0.012356   
    -----------------------------------------------------------------

Number of atoms                         .... 10
Number of degrees of freedom            .... 36

         *************************************************************
         *                GEOMETRY OPTIMIZATION CYCLE   1            *
         *************************************************************
---------------------------------
CARTESIAN COORDINATES (ANGSTROEM)
---------------------------------
  H      1.808835   -2.255965   -2.982349
  H     -0.440422   -0.854231   -3.150147
  O     -0.496597   -3.456995   -1.409482
  C      1.154307   -3.125133   -3.094493
  C     -1.019357   -1.769742   -3.008374
  C     -0.155052   -2.845322   -2.405613
  H     -1.883761   -1.573629   -2.377369
  H      1.635689   -3.999980   -2.662249
  H      0.999104   -3.269010   -4.165975
  H     -1.353337   -2.089933   -3.999318

----------------------------
CARTESIAN COORDINATES (A.U.)
----------------------------
  NO LB      ZA    FRAG     MASS         X           Y           Z
   0 H     1.0000    0     1.008    3.418203   -4.263157   -5.635823
   1 H     1.0000    0     1.008   -0.832277   -1.614262   -5.952914
   2 O     8.0000    0    15.999   -0.938432   -6.532774   -2.663536
   3 C     6.0000    0    12.011    2.181325   -5.905645   -5.847744
   4 C     6.0000    0    12.011   -1.926305   -3.344328   -5.685002
   5 C     6.0000    0    12.011   -0.293005   -5.376879   -4.545951
   6 H     1.0000    0     1.008   -3.559793   -2.973728   -4.492576
   7 H     1.0000    0     1.008    3.091003   -7.558867   -5.030922
   8 H     1.0000    0     1.008    1.888033   -6.177534   -7.872552
   9 H     1.0000    0     1.008   -2.557436   -3.949401   -7.557617

--------------------------------
INTERNAL COORDINATES (ANGSTROEM)
--------------------------------
 H      0   0   0     0.000000000000     0.00000000     0.00000000
 H      1   0   0     2.655592828803     0.00000000     0.00000000
 O      1   2   0     3.038321677450    66.33933057     0.00000000
 C      1   2   3     1.093816371153    84.61352596    42.02446853
 C      2   1   3     1.092440429876    89.90283774   331.01991875
 C      3   1   2     1.217815219835    33.40575018    34.76287344
 H      5   2   1     1.088035969706   110.19607671   141.25479945
 H      4   1   2     1.088081137976   109.47724650   204.29002358
 H      4   1   2     1.092182712872   106.87551660    84.84729584
 H      5   2   1     1.093634592443   106.83440321   260.26395251

---------------------------
INTERNAL COORDINATES (A.U.)
---------------------------
 H      0   0   0     0.000000000000     0.00000000     0.00000000
 H      1   0   0     5.018343169643     0.00000000     0.00000000
 O      1   2   0     5.741595877136    66.33933057     0.00000000
 C      1   2   3     2.067013382279    84.61352596    42.02446853
 C      2   1   3     2.064413230088    89.90283774   331.01991875
 C      3   1   2     2.301337247209    33.40575018    34.76287344
 H      5   2   1     2.056090006599   110.19607671   141.25479945
 H      4   1   2     2.056175362259   109.47724650   204.29002358
 H      4   1   2     2.063926215531   106.87551660    84.84729584
 H      5   2   1     2.066669870300   106.83440321   260.26395251

---------------------
BASIS SET INFORMATION
---------------------
There are 3 groups of distinct atoms

 Group   1 Type H   : 5s1p contracted to 3s1p pattern {311/1}
 Group   2 Type O   : 11s6p2d1f contracted to 5s3p2d1f pattern {62111/411/11/1}
 Group   3 Type C   : 11s6p2d1f contracted to 5s3p2d1f pattern {62111/411/11/1}

Atom   0H    basis set group =>   1
Atom   1H    basis set group =>   1
Atom   2O    basis set group =>   2
Atom   3C    basis set group =>   3
Atom   4C    basis set group =>   3
Atom   5C    basis set group =>   3
Atom   6H    basis set group =>   1
Atom   7H    basis set group =>   1
Atom   8H    basis set group =>   1
Atom   9H    basis set group =>   1
---------------------------------
AUXILIARY/J BASIS SET INFORMATION
---------------------------------
There are 3 groups of distinct atoms

 Group   1 Type H   : 5s2p1d contracted to 3s1p1d pattern {311/2/1}
 Group   2 Type O   : 12s5p4d2f1g contracted to 6s4p3d1f1g pattern {711111/2111/211/2/1}
 Group   3 Type C   : 12s5p4d2f1g contracted to 6s4p3d1f1g pattern {711111/2111/211/2/1}

Atom   0H    basis set group =>   1
Atom   1H    basis set group =>   1
Atom   2O    basis set group =>   2
Atom   3C    basis set group =>   3
Atom   4C    basis set group =>   3
Atom   5C    basis set group =>   3
Atom   6H    basis set group =>   1
Atom   7H    basis set group =>   1
Atom   8H    basis set group =>   1
Atom   9H    basis set group =>   1


           ************************************************************
           *        Program running with 6 parallel MPI-processes     *
           *              working on a common directory               *
           ************************************************************
------------------------------------------------------------------------------
                           ORCA GTO INTEGRAL CALCULATION
                           -- RI-GTO INTEGRALS CHOSEN --
------------------------------------------------------------------------------
------------------------------------------------------------------------------
                   ___                                                        
                  /   \      - P O W E R E D   B Y -                         
                 /     \                                                     
                 |  |  |   _    _      __       _____    __    __             
                 |  |  |  | |  | |    /  \     |  _  \  |  |  /  |          
                  \  \/   | |  | |   /    \    | | | |  |  | /  /          
                 / \  \   | |__| |  /  /\  \   | |_| |  |  |/  /          
                |  |  |   |  __  | /  /__\  \  |    /   |      \           
                |  |  |   | |  | | |   __   |  |    \   |  |\   \          
                \     /   | |  | | |  |  |  |  | |\  \  |  | \   \       
                 \___/    |_|  |_| |__|  |__|  |_| \__\ |__|  \__/        
                                                                              
                      - O R C A' S   B I G   F R I E N D -                    
                                      &                                       
                       - I N T E G R A L  F E E D E R -                       
                                                                              
 v1 FN, 2020, v2 2021                                                         
------------------------------------------------------------------------------


Reading SHARK input file acetone.SHARKINP.tmp ... ok
----------------------
SHARK INTEGRAL PACKAGE
----------------------

Number of atoms                             ...     10
Number of basis functions                   ...    160
Number of shells                            ...     68
Maximum angular momentum                    ...      3
Integral batch strategy                     ... SHARK/LIBINT Hybrid
RI-J (if used) integral strategy            ... SPLIT-RIJ (Revised 2003 algorithm where possible)
Printlevel                                  ...      1
Contraction scheme used                     ... SEGMENTED contraction
Coulomb Range Separation                    ... NOT USED
Exchange Range Separation                   ... NOT USED
Finite Nucleus Model                        ... NOT USED
Auxiliary Coulomb fitting basis             ... AVAILABLE
   # of basis functions in Aux-J            ...    262
   # of shells in Aux-J                     ...     90
   Maximum angular momentum in Aux-J        ...      4
Auxiliary J/K fitting basis                 ... NOT available
Auxiliary Correlation fitting basis         ... NOT available
Auxiliary 'external' fitting basis          ... NOT available
Integral threshold                          ...     2.500000e-11
Primitive cut-off                           ...     2.500000e-12
Primitive pair pre-selection threshold      ...     2.500000e-12

Calculating pre-screening integrals         ... done (  0.0 sec) Dimension = 68
Organizing shell pair data                  ... done (  0.0 sec)
Shell pair information
Total number of shell pairs                 ...      2346
Shell pairs after pre-screening             ...      2300
Total number of primitive shell pairs       ...      6892
Primitive shell pairs kept                  ...      5538
          la=0 lb=0:    703 shell pairs
          la=1 lb=0:    678 shell pairs
          la=1 lb=1:    171 shell pairs
          la=2 lb=0:    302 shell pairs
          la=2 lb=1:    144 shell pairs
          la=2 lb=2:     36 shell pairs
          la=3 lb=0:    152 shell pairs
          la=3 lb=1:     72 shell pairs
          la=3 lb=2:     32 shell pairs
          la=3 lb=3:     10 shell pairs

Calculating one electron integrals          ... done (  0.0 sec)
Calculating RI/J V-Matrix + Cholesky decomp.... done (  0.0 sec)
Calculating Nuclear repulsion               ... done (  0.0 sec) ENN=    119.630166996241 Eh

SHARK setup successfully completed in   0.1 seconds

Maximum memory used throughout the entire GTOINT-calculation: 15.9 MB


           ************************************************************
           *        Program running with 6 parallel MPI-processes     *
           *              working on a common directory               *
           ************************************************************
-------------------------------------------------------------------------------
                                 ORCA SCF
-------------------------------------------------------------------------------

------------
SCF SETTINGS
------------
Hamiltonian:
 Density Functional     Method          .... DFT(GTOs)
 Exchange Functional    Exchange        .... B88
   X-Alpha parameter    XAlpha          ....  0.666667
   Becke's b parameter  XBeta           ....  0.004200
 Correlation Functional Correlation     .... LYP
 Gradients option       PostSCFGGA      .... off
   Density functional embedding theory  .... OFF
   NL short-range parameter             ....  4.000000
 RI-approximation to the Coulomb term is turned on
   Number of AuxJ basis functions       .... 262


General Settings:
 Integral files         IntName         .... acetone
 Hartree-Fock type      HFTyp           .... RHF
 Total Charge           Charge          ....    0
 Multiplicity           Mult            ....    1
 Number of Electrons    NEL             ....   32
 Basis Dimension        Dim             ....  160
 Nuclear Repulsion      ENuc            ....    119.6301669962 Eh

Convergence Acceleration:
 DIIS                   CNVDIIS         .... on
   Start iteration      DIISMaxIt       ....    12
   Startup error        DIISStart       ....  0.200000
   # of expansion vecs  DIISMaxEq       ....     5
   Bias factor          DIISBfac        ....   1.050
   Max. coefficient     DIISMaxC        ....  10.000
 Trust-Rad. Augm. Hess. CNVTRAH         .... auto
   Auto Start mean grad. ratio tolernc. ....  1.125000
   Auto Start start iteration           ....    20
   Auto Start num. interpolation iter.  ....    10
   Max. Number of Micro iterations      ....    16
   Max. Number of Macro iterations      .... Maxiter - #DIIS iter
   Number of Davidson start vectors     ....     2
   Converg. threshold I  (grad. norm)   ....   1.000e-05
   Converg. threshold II (energy diff.) ....   1.000e-08
   Grad. Scal. Fac. for Micro threshold ....   0.100
   Minimum threshold for Micro iter.    ....   0.010
   NR start threshold (gradient norm)   ....   0.001
   Initial trust radius                 ....   0.400
   Minimum AH scaling param. (alpha)    ....   1.000
   Maximum AH scaling param. (alpha)    .... 1000.000
   Orbital update algorithm             .... Taylor
   White noise on init. David. guess    .... on
   Maximum white noise                  ....   0.010
   Quad. conv. algorithm                .... NR
 SOSCF                  CNVSOSCF        .... on
   Start iteration      SOSCFMaxIt      ....   150
   Startup grad/error   SOSCFStart      ....  0.003300
 Level Shifting         CNVShift        .... on
   Level shift para.    LevelShift      ....    0.2500
   Turn off err/grad.   ShiftErr        ....    0.0010
 Zerner damping         CNVZerner       .... off
 Static damping         CNVDamp         .... on
   Fraction old density DampFac         ....    0.7000
   Max. Damping (<1)    DampMax         ....    0.9800
   Min. Damping (>=0)   DampMin         ....    0.0000
   Turn off err/grad.   DampErr         ....    0.1000
 Fernandez-Rico         CNVRico         .... off

SCF Procedure:
 Maximum # iterations   MaxIter         ....   125
 SCF integral mode      SCFMode         .... Direct
   Integral package                     .... SHARK and LIBINT hybrid scheme
 Reset frequency        DirectResetFreq ....    20
 Integral Threshold     Thresh          ....  2.500e-11 Eh
 Primitive CutOff       TCut            ....  2.500e-12 Eh

Convergence Tolerance:
 Convergence Check Mode ConvCheckMode   .... Total+1el-Energy
 Convergence forced     ConvForced      .... 0
 Energy Change          TolE            ....  1.000e-08 Eh
 1-El. energy change                    ....  1.000e-05 Eh
 Orbital Gradient       TolG            ....  1.000e-05
 Orbital Rotation angle TolX            ....  1.000e-05
 DIIS Error             TolErr          ....  5.000e-07


Diagonalization of the overlap matrix:
Smallest eigenvalue                        ... 3.767e-04
Time for diagonalization                   ...    0.002 sec
Threshold for overlap eigenvalues          ... 1.000e-08
Number of eigenvalues below threshold      ... 0
Time for construction of square roots      ...    0.002 sec
Total time needed                          ...    0.004 sec

Time for model grid setup =    0.026 sec

------------------------------
INITIAL GUESS: MODEL POTENTIAL
------------------------------
Loading Hartree-Fock densities                     ... done
Calculating cut-offs                               ... done
Initializing the effective Hamiltonian             ... done
Setting up the integral package (SHARK)            ... done
Starting the Coulomb interaction                   ... done (   0.0 sec)
Reading the grid                                   ... done
Mapping shells                                     ... done
Starting the XC term evaluation                    ... done (   0.0 sec)
  promolecular density results
     # of electrons  =     31.993874277
     EX              =    -25.372383069
     EC              =     -1.049860002
     EX+EC           =    -26.422243071
Transforming the Hamiltonian                       ... done (   0.0 sec)
Diagonalizing the Hamiltonian                      ... done (   0.0 sec)
Back transforming the eigenvectors                 ... done (   0.0 sec)
Now organizing SCF variables                       ... done
                      ------------------
                      INITIAL GUESS DONE (   0.1 sec)
                      ------------------
-------------------
DFT GRID GENERATION
-------------------

General Integration Accuracy     IntAcc      ... 4.388
Radial Grid Type                 RadialGrid  ... OptM3 with GC (2021)
Angular Grid (max. ang.)         AngularGrid ... 4 (Lebedev-302)
Angular grid pruning method      GridPruning ... 4 (adaptive)
Weight generation scheme         WeightScheme... Becke
Basis function cutoff            BFCut       ... 1.0000e-11
Integration weight cutoff        WCut        ... 1.0000e-14
Angular grids for H and He will be reduced by one unit
Partially contracted basis set               ... off
Rotationally invariant grid construction     ... off

Total number of grid points                  ...    43779
Total number of batches                      ...      689
Average number of points per batch           ...       63
Average number of grid points per atom       ...     4378
Time for grid setup =    0.166 sec

--------------
SCF ITERATIONS
--------------
ITER       Energy         Delta-E        Max-DP      RMS-DP      [F,P]     Damp
               ***  Starting incremental Fock matrix formation  ***
  0   -192.9628621207   0.000000000000 0.25746420  0.00452766  0.2734483 0.7000
  1   -193.0636341895  -0.100772068882 0.21163457  0.00354931  0.0919178 0.7000
                               ***Turning on DIIS***
  2   -193.0920033424  -0.028369152854 0.13271389  0.00329239  0.0306745 0.0000
  3   -193.1440505605  -0.052047218090 0.20267096  0.00318089  0.0608866 0.0000
  4   -193.1554378397  -0.011387279242 0.04718241  0.00079555  0.0317033 0.0000
  5   -193.1578239727  -0.002386133018 0.01647181  0.00027752  0.0044113 0.0000
                      *** Initiating the SOSCF procedure ***
                           *** Shutting down DIIS ***
                      *** Re-Reading the Fockian *** 
                      *** Removing any level shift *** 
ITER      Energy       Delta-E        Grad      Rot      Max-DP    RMS-DP
  6   -193.15793539  -0.0001114150  0.000441  0.000441  0.015301  0.000248
               *** Restarting incremental Fock matrix formation ***
  7   -193.15794226  -0.0000068766  0.000204  0.000649  0.000781  0.000019
  8   -193.15794048   0.0000017844  0.000552  0.000631  0.000522  0.000012
  9   -193.15794263  -0.0000021517  0.000138  0.000300  0.001871  0.000032
 10   -193.15794231   0.0000003170  0.000149  0.000162  0.001192  0.000020
 11   -193.15794279  -0.0000004710  0.000003  0.000005  0.000010  0.000000
 12   -193.15794279  -0.0000000007  0.000003  0.000003  0.000010  0.000000
                  ***Gradient check signals convergence***
              ***Rediagonalizing the Fockian in SOSCF/NRSCF***

               *****************************************************
               *                     SUCCESS                       *
               *           SCF CONVERGED AFTER  13 CYCLES          *
               *****************************************************


----------------
TOTAL SCF ENERGY
----------------

Total Energy       :         -193.15794279 Eh           -5256.09484 eV

Components:
Nuclear Repulsion  :          119.63016700 Eh            3255.30234 eV
Electronic Energy  :         -312.78810978 Eh           -8511.39718 eV
One Electron Energy:         -497.90316397 Eh          -13548.63389 eV
Two Electron Energy:          185.11505418 Eh            5037.23671 eV

Virial components:
Potential Energy   :         -385.70536533 Eh          -10495.57658 eV
Kinetic Energy     :          192.54742254 Eh            5239.48174 eV
Virial Ratio       :            2.00317075


DFT components:
N(Alpha)           :       15.999994609245 electrons
N(Beta)            :       15.999994609245 electrons
N(Total)           :       31.999989218489 electrons
E(X)               :      -25.987704455577 Eh       
E(C)               :       -1.060108248730 Eh       
E(XC)              :      -27.047812704308 Eh       
DFET-embed. en.    :        0.000000000000 Eh       

---------------
SCF CONVERGENCE
---------------

  Last Energy change         ...   -2.0538e-10  Tolerance :   1.0000e-08
  Last MAX-Density change    ...    2.7689e-06  Tolerance :   1.0000e-07
  Last RMS-Density change    ...    7.2639e-08  Tolerance :   5.0000e-09
  Last Orbital Gradient      ...    4.1616e-07  Tolerance :   1.0000e-05
  Last Orbital Rotation      ...    9.8892e-07  Tolerance :   1.0000e-05

             **** THE GBW FILE WAS UPDATED (acetone.gbw) ****
             **** DENSITY acetone.scfp WAS UPDATED ****
             **** ENERGY FILE WAS UPDATED (acetone.en.tmp) ****
             **** THE GBW FILE WAS UPDATED (acetone.gbw) ****
             **** DENSITY acetone.scfp WAS UPDATED ****
----------------
ORBITAL ENERGIES
----------------

  NO   OCC          E(Eh)            E(eV) 
   0   2.0000     -18.758354      -510.4408 
   1   2.0000      -9.992699      -271.9152 
   2   2.0000      -9.911447      -269.7042 
   3   2.0000      -9.911425      -269.7036 
   4   2.0000      -0.943325       -25.6692 
   5   2.0000      -0.697621       -18.9832 
   6   2.0000      -0.641485       -17.4557 
   7   2.0000      -0.474738       -12.9183 
   8   2.0000      -0.414707       -11.2848 
   9   2.0000      -0.408820       -11.1246 
  10   2.0000      -0.400299       -10.8927 
  11   2.0000      -0.360563        -9.8114 
  12   2.0000      -0.346724        -9.4348 
  13   2.0000      -0.336884        -9.1671 
  14   2.0000      -0.309121        -8.4116 
  15   2.0000      -0.202525        -5.5110 
  16   0.0000      -0.053403        -1.4532 
  17   0.0000       0.006137         0.1670 
  18   0.0000       0.058369         1.5883 
  19   0.0000       0.072320         1.9679 
  20   0.0000       0.074892         2.0379 
  21   0.0000       0.100678         2.7396 
  22   0.0000       0.103161         2.8072 
  23   0.0000       0.107872         2.9353 
  24   0.0000       0.137710         3.7473 
  25   0.0000       0.155196         4.2231 
  26   0.0000       0.177960         4.8425 
  27   0.0000       0.191012         5.1977 
  28   0.0000       0.193380         5.2622 
  29   0.0000       0.262170         7.1340 
  30   0.0000       0.263208         7.1623 
  31   0.0000       0.276521         7.5245 
  32   0.0000       0.336821         9.1654 
  33   0.0000       0.337322         9.1790 
  34   0.0000       0.365104         9.9350 
  35   0.0000       0.369812        10.0631 
  36   0.0000       0.397871        10.8266 
  37   0.0000       0.401666        10.9299 
  38   0.0000       0.410159        11.1610 
  39   0.0000       0.415929        11.3180 
  40   0.0000       0.419399        11.4124 
  41   0.0000       0.442601        12.0438 
  42   0.0000       0.510477        13.8908 
  43   0.0000       0.511241        13.9116 
  44   0.0000       0.531347        14.4587 
  45   0.0000       0.567335        15.4380 
  46   0.0000       0.623257        16.9597 
  47   0.0000       0.637788        17.3551 
  48   0.0000       0.688442        18.7335 
  49   0.0000       0.752499        20.4765 
  50   0.0000       0.781730        21.2720 
  51   0.0000       0.795175        21.6378 
  52   0.0000       0.861472        23.4418 
  53   0.0000       0.888768        24.1846 
  54   0.0000       0.925572        25.1861 
  55   0.0000       0.928050        25.2535 
  56   0.0000       0.949161        25.8280 
  57   0.0000       1.002393        27.2765 
  58   0.0000       1.056941        28.7608 
  59   0.0000       1.061298        28.8794 
  60   0.0000       1.083476        29.4829 
  61   0.0000       1.169706        31.8293 
  62   0.0000       1.331559        36.2336 
  63   0.0000       1.346654        36.6443 
  64   0.0000       1.362982        37.0886 
  65   0.0000       1.426837        38.8262 
  66   0.0000       1.436485        39.0888 
  67   0.0000       1.451794        39.5053 
  68   0.0000       1.455721        39.6122 
  69   0.0000       1.469038        39.9746 
  70   0.0000       1.488764        40.5113 
  71   0.0000       1.490277        40.5525 
  72   0.0000       1.504916        40.9508 
  73   0.0000       1.561921        42.5020 
  74   0.0000       1.585283        43.1377 
  75   0.0000       1.626938        44.2712 
  76   0.0000       1.767026        48.0832 
  77   0.0000       1.795421        48.8559 
  78   0.0000       1.803697        49.0811 
  79   0.0000       1.878723        51.1227 
  80   0.0000       1.938390        52.7463 
  81   0.0000       1.949322        53.0438 
  82   0.0000       1.964320        53.4519 
  83   0.0000       2.003627        54.5215 
  84   0.0000       2.031308        55.2747 
  85   0.0000       2.083553        56.6963 
  86   0.0000       2.093460        56.9660 
  87   0.0000       2.119103        57.6637 
  88   0.0000       2.130343        57.9696 
  89   0.0000       2.250283        61.2333 
  90   0.0000       2.261396        61.5357 
  91   0.0000       2.265227        61.6400 
  92   0.0000       2.313706        62.9591 
  93   0.0000       2.377949        64.7073 
  94   0.0000       2.384357        64.8817 
  95   0.0000       2.437308        66.3225 
  96   0.0000       2.449494        66.6541 
  97   0.0000       2.480574        67.4998 
  98   0.0000       2.482302        67.5469 
  99   0.0000       2.565980        69.8239 
 100   0.0000       2.615764        71.1786 
 101   0.0000       2.671798        72.7033 
 102   0.0000       2.700902        73.4953 
 103   0.0000       2.721295        74.0502 
 104   0.0000       2.764846        75.2353 
 105   0.0000       2.822735        76.8105 
 106   0.0000       2.893954        78.7485 
 107   0.0000       2.900514        78.9270 
 108   0.0000       2.916819        79.3707 
 109   0.0000       2.984797        81.2204 
 110   0.0000       2.986238        81.2597 
 111   0.0000       3.010293        81.9142 
 112   0.0000       3.019077        82.1533 
 113   0.0000       3.038835        82.6909 
 114   0.0000       3.052828        83.0717 
 115   0.0000       3.143723        85.5451 
 116   0.0000       3.198669        87.0402 
 117   0.0000       3.219960        87.6196 
 118   0.0000       3.238598        88.1267 
 119   0.0000       3.294965        89.6606 
 120   0.0000       3.297644        89.7335 
 121   0.0000       3.339466        90.8715 
 122   0.0000       3.350333        91.1672 
 123   0.0000       3.395588        92.3986 
 124   0.0000       3.437883        93.5495 
 125   0.0000       3.455047        94.0166 
 126   0.0000       3.578396        97.3731 
 127   0.0000       3.671205        99.8986 
 128   0.0000       3.775705       102.7422 
 129   0.0000       3.780370       102.8691 
 130   0.0000       3.811005       103.7027 
 131   0.0000       3.888411       105.8090 
 132   0.0000       3.892812       105.9288 
 133   0.0000       3.917101       106.5897 
 134   0.0000       3.971419       108.0678 
 135   0.0000       4.214664       114.6868 
 136   0.0000       4.251030       115.6764 
 137   0.0000       4.280379       116.4750 
 138   0.0000       4.300124       117.0123 
 139   0.0000       4.332571       117.8953 
 140   0.0000       4.416815       120.1877 
 141   0.0000       4.560488       124.0972 
 142   0.0000       4.665930       126.9664 
 143   0.0000       4.687763       127.5605 
 144   0.0000       5.091725       138.5529 
 145   0.0000       5.095787       138.6634 
 146   0.0000       5.486499       149.2952 
 147   0.0000       5.565442       151.4434 
 148   0.0000       6.011574       163.5832 
 149   0.0000       6.185805       168.3243 
 150   0.0000       6.254731       170.1999 
 151   0.0000       6.376740       173.5199 
 152   0.0000       6.390197       173.8861 
 153   0.0000       6.686832       181.9579 
 154   0.0000       6.866135       186.8370 
 155   0.0000       6.927667       188.5114 
 156   0.0000      22.010518       598.9366 
 157   0.0000      22.021303       599.2301 
 158   0.0000      22.659005       616.5829 
 159   0.0000      43.379693      1180.4214 

                    ********************************
                    * MULLIKEN POPULATION ANALYSIS *
                    ********************************

-----------------------
MULLIKEN ATOMIC CHARGES
-----------------------
   0 H :    0.109617
   1 H :    0.103080
   2 O :   -0.254039
   3 C :   -0.288143
   4 C :   -0.288151
   5 C :    0.176617
   6 H :    0.114374
   7 H :    0.114636
   8 H :    0.102702
   9 H :    0.109306
Sum of atomic charges:   -0.0000000

--------------------------------
MULLIKEN REDUCED ORBITAL CHARGES
--------------------------------
  0 H s       :     0.868718  s :     0.868718
      pz      :     0.004826  p :     0.021665
      px      :     0.007954
      py      :     0.008885
  1 H s       :     0.875433  s :     0.875433
      pz      :     0.004835  p :     0.021487
      px      :     0.006207
      py      :     0.010446
  2 O s       :     3.801158  s :     3.801158
      pz      :     1.320438  p :     4.422821
      px      :     1.653452
      py      :     1.448931
      dz2     :     0.009456  d :     0.028411
      dxz     :     0.006052
      dyz     :     0.006779
      dx2y2   :     0.002887
      dxy     :     0.003237
      f0      :     0.000450  f :     0.001649
      f+1     :     0.000221
      f-1     :     0.000266
      f+2     :     0.000270
      f-2     :     0.000257
      f+3     :     0.000101
      f-3     :     0.000084
  3 C s       :     3.249048  s :     3.249048
      pz      :     1.006539  p :     3.005072
      px      :     0.956442
      py      :     1.042090
      dz2     :     0.009878  d :     0.030833
      dxz     :     0.005328
      dyz     :     0.001534
      dx2y2   :     0.004357
      dxy     :     0.009735
      f0      :     0.000761  f :     0.003191
      f+1     :     0.000720
      f-1     :     0.000066
      f+2     :     0.000145
      f-2     :     0.000387
      f+3     :     0.000782
      f-3     :     0.000330
  4 C s       :     3.249132  s :     3.249132
      pz      :     1.026572  p :     3.004976
      px      :     1.007596
      py      :     0.970809
      dz2     :     0.006994  d :     0.030851
      dxz     :     0.003998
      dyz     :     0.005572
      dx2y2   :     0.007528
      dxy     :     0.006759
      f0      :     0.000257  f :     0.003191
      f+1     :     0.000480
      f-1     :     0.000542
      f+2     :     0.000364
      f-2     :     0.000638
      f+3     :     0.000611
      f-3     :     0.000300
  5 C s       :     3.195663  s :     3.195663
      pz      :     0.759210  p :     2.416435
      px      :     0.865219
      py      :     0.792005
      dz2     :     0.045747  d :     0.193949
      dxz     :     0.049851
      dyz     :     0.031520
      dx2y2   :     0.034763
      dxy     :     0.032067
      f0      :     0.002625  f :     0.017336
      f+1     :     0.003260
      f-1     :     0.002715
      f+2     :     0.003007
      f-2     :     0.002684
      f+3     :     0.001013
      f-3     :     0.002033
  6 H s       :     0.864052  s :     0.864052
      pz      :     0.006939  p :     0.021574
      px      :     0.009982
      py      :     0.004653
  7 H s       :     0.863794  s :     0.863794
      pz      :     0.005541  p :     0.021571
      px      :     0.006260
      py      :     0.009770
  8 H s       :     0.875818  s :     0.875818
      pz      :     0.011993  p :     0.021479
      px      :     0.004777
      py      :     0.004709
  9 H s       :     0.869055  s :     0.869055
      pz      :     0.010863  p :     0.021639
      px      :     0.005552
      py      :     0.005224


                     *******************************
                     * LOEWDIN POPULATION ANALYSIS *
                     *******************************

----------------------
LOEWDIN ATOMIC CHARGES
----------------------
   0 H :    0.134866
   1 H :    0.130671
   2 O :    0.131918
   3 C :   -0.264426
   4 C :   -0.264392
   5 C :   -0.389085
   6 H :    0.127993
   7 H :    0.128128
   8 H :    0.130022
   9 H :    0.134304

-------------------------------
LOEWDIN REDUCED ORBITAL CHARGES
-------------------------------
  0 H s       :     0.804213  s :     0.804213
      pz      :     0.013920  p :     0.060922
      px      :     0.020531
      py      :     0.026471
  1 H s       :     0.808360  s :     0.808360
      pz      :     0.014111  p :     0.060968
      px      :     0.019073
      py      :     0.027784
  2 O s       :     3.406245  s :     3.406245
      pz      :     1.410002  p :     4.388306
      px      :     1.555338
      py      :     1.422966
      dz2     :     0.016010  d :     0.067527
      dxz     :     0.017289
      dyz     :     0.020745
      dx2y2   :     0.007468
      dxy     :     0.006015
      f0      :     0.000806  f :     0.006004
      f+1     :     0.001011
      f-1     :     0.001540
      f+2     :     0.001192
      f-2     :     0.001035
      f+3     :     0.000179
      f-3     :     0.000239
  3 C s       :     2.838406  s :     2.838406
      pz      :     1.061614  p :     3.176636
      px      :     1.047284
      py      :     1.067738
      dz2     :     0.065675  d :     0.224757
      dxz     :     0.039467
      dyz     :     0.016049
      dx2y2   :     0.032277
      dxy     :     0.071289
      f0      :     0.003451  f :     0.024627
      f+1     :     0.004347
      f-1     :     0.001454
      f+2     :     0.004691
      f-2     :     0.003794
      f+3     :     0.004410
      f-3     :     0.002480
  4 C s       :     2.838437  s :     2.838437
      pz      :     1.067172  p :     3.176576
      px      :     1.057275
      py      :     1.052129
      dz2     :     0.045577  d :     0.224754
      dxz     :     0.044852
      dyz     :     0.033137
      dx2y2   :     0.041124
      dxy     :     0.060063
      f0      :     0.002579  f :     0.024624
      f+1     :     0.002529
      f-1     :     0.005021
      f+2     :     0.003913
      f-2     :     0.003164
      f+3     :     0.004458
      f-3     :     0.002960
  5 C s       :     2.781453  s :     2.781453
      pz      :     0.901144  p :     2.730821
      px      :     0.961040
      py      :     0.868637
      dz2     :     0.155192  d :     0.768756
      dxz     :     0.203167
      dyz     :     0.153990
      dx2y2   :     0.138054
      dxy     :     0.118352
      f0      :     0.014749  f :     0.108055
      f+1     :     0.021570
      f-1     :     0.017679
      f+2     :     0.018970
      f-2     :     0.014019
      f+3     :     0.007204
      f-3     :     0.013863
  6 H s       :     0.811007  s :     0.811007
      pz      :     0.020771  p :     0.061000
      px      :     0.027350
      py      :     0.012878
  7 H s       :     0.810872  s :     0.810872
      pz      :     0.016420  p :     0.061000
      px      :     0.016619
      py      :     0.027961
  8 H s       :     0.808995  s :     0.808995
      pz      :     0.033550  p :     0.060983
      px      :     0.013615
      py      :     0.013818
  9 H s       :     0.804769  s :     0.804769
      pz      :     0.030462  p :     0.060927
      px      :     0.015140
      py      :     0.015325


                      *****************************
                      * MAYER POPULATION ANALYSIS *
                      *****************************

  NA   - Mulliken gross atomic population
  ZA   - Total nuclear charge
  QA   - Mulliken gross atomic charge
  VA   - Mayer's total valence
  BVA  - Mayer's bonded valence
  FA   - Mayer's free valence

  ATOM       NA         ZA         QA         VA         BVA        FA
  0 H      0.8904     1.0000     0.1096     0.9741     0.9741     0.0000
  1 H      0.8969     1.0000     0.1031     0.9728     0.9728    -0.0000
  2 O      8.2540     8.0000    -0.2540     2.1956     2.1956     0.0000
  3 C      6.2881     6.0000    -0.2881     3.6744     3.6744    -0.0000
  4 C      6.2882     6.0000    -0.2882     3.6743     3.6743    -0.0000
  5 C      5.8234     6.0000     0.1766     4.0737     4.0737    -0.0000
  6 H      0.8856     1.0000     0.1144     1.0061     1.0061    -0.0000
  7 H      0.8854     1.0000     0.1146     1.0058     1.0058    -0.0000
  8 H      0.8973     1.0000     0.1027     0.9728     0.9728    -0.0000
  9 H      0.8907     1.0000     0.1093     0.9740     0.9740     0.0000

  Mayer bond orders larger than 0.100000
B(  0-H ,  3-C ) :   0.9395 B(  1-H ,  4-C ) :   0.9430 B(  2-O ,  5-C ) :   2.1796 
B(  3-C ,  5-C ) :   0.9375 B(  3-C ,  7-H ) :   0.9740 B(  3-C ,  8-H ) :   0.9438 
B(  4-C ,  5-C ) :   0.9378 B(  4-C ,  6-H ) :   0.9741 B(  4-C ,  9-H ) :   0.9401 


-------
TIMINGS
-------

Total SCF time: 0 days 0 hours 0 min 1 sec 

Total time                  ....       1.790 sec
Sum of individual times     ....       1.717 sec  ( 95.9%)

Fock matrix formation       ....       1.414 sec  ( 79.0%)
  Split-RI-J                ....       0.376 sec  ( 26.6% of F)
  XC integration            ....       1.018 sec  ( 72.0% of F)
    Basis function eval.    ....       0.244 sec  ( 23.9% of XC)
    Density eval.           ....       0.223 sec  ( 21.9% of XC)
    XC-Functional eval.     ....       0.028 sec  (  2.7% of XC)
    XC-Potential eval.      ....       0.282 sec  ( 27.6% of XC)
Diagonalization             ....       0.022 sec  (  1.2%)
Density matrix formation    ....       0.003 sec  (  0.2%)
Population analysis         ....       0.005 sec  (  0.3%)
Initial guess               ....       0.038 sec  (  2.1%)
Orbital Transformation      ....       0.000 sec  (  0.0%)
Orbital Orthonormalization  ....       0.000 sec  (  0.0%)
DIIS solution               ....       0.018 sec  (  1.0%)
SOSCF solution              ....       0.025 sec  (  1.4%)
Grid generation             ....       0.193 sec  ( 10.8%)

Maximum memory used throughout the entire SCF-calculation: 15.9 MB


-------------------------------------------------------------------------------
                          DFT DISPERSION CORRECTION                            
                                                                               
                              DFTD3 V3.1  Rev 1                                
                          USING Becke-Johnson damping                          
-------------------------------------------------------------------------------
The BLYP functional is recognized
Active option DFTDOPT                   ...         4   

molecular C6(AA) [au] = 764.202125 


            DFT-D V3
 parameters
 s6 scaling factor         :     1.0000 
 a1 scaling factor         :     0.4298 
 s8 scaling factor         :     2.6996 
 a2 scaling factor         :     4.2359 
 ad hoc parameters k1-k3   :    16.0000     1.3333    -4.0000 

 Edisp/kcal,au: -7.708149529926  -0.012283716862 
 E6   /kcal   :  -3.179393620 
 E8   /kcal   :  -4.528755910 
 % E8         :  58.752828968 

-------------------------   ----------------
Dispersion correction           -0.012283717
-------------------------   ----------------


-------------------------   --------------------
FINAL SINGLE POINT ENERGY      -193.170226503322
-------------------------   --------------------



           ************************************************************
           *        Program running with 6 parallel MPI-processes     *
           *              working on a common directory               *
           ************************************************************
------------------------------------------------------------------------------
                         ORCA SCF GRADIENT CALCULATION
------------------------------------------------------------------------------

Gradient of the Kohn-Sham DFT energy:
Kohn-Sham wavefunction type      ... RKS
Hartree-Fock exchange scaling    ...    0.000
Number of operators              ...    1
Number of atoms                  ...   10
Basis set dimensions             ...  160
Integral neglect threshold       ... 2.5e-11
Integral primitive cutoff        ... 2.5e-12
SHARK Integral package           ... ON

Nuc. rep. gradient       (SHARK) ... done (  0.0 sec)
HCore & Overlap gradient (SHARK) ... done (  0.0 sec)
RI-J gradient            (SHARK) ... done (  0.1 sec)
Exchange-correlation gradient    ... done
Dispersion correction            ... done

------------------
CARTESIAN GRADIENT
------------------

   1   H   :   -0.003335775   -0.002825222    0.000201329
   2   H   :   -0.001451141   -0.004222235    0.001085215
   3   O   :    0.002612704    0.004542606   -0.007410567
   4   C   :   -0.003321913    0.000168309    0.002308447
   5   C   :    0.001703726   -0.003018835    0.002094233
   6   C   :    0.001162823    0.002120385   -0.003216220
   7   H   :    0.002704355   -0.000457359   -0.002042260
   8   H   :   -0.001443320    0.002716935   -0.001485398
   9   H   :   -0.000486649    0.000696950    0.004520587
  10   H   :    0.001855190    0.000278466    0.003944633

Difference to translation invariance:
           :   -0.0000000000    0.0000000000    0.0000000000

Difference to rotation invariance:
           :   -0.0000370401    0.0000467270    0.0000745176

Norm of the cartesian gradient     ...    0.0153371306
RMS gradient                       ...    0.0028001641
MAX gradient                       ...    0.0074105667

-------
TIMINGS
-------

Total SCF gradient time            ...        0.678 sec

One electron gradient       ....       0.023 sec  (  3.4%)
RI-J Coulomb gradient       ....       0.137 sec  ( 20.2%)
XC gradient                 ....       0.402 sec  ( 59.2%)

Maximum memory used throughout the entire SCFGRAD-calculation: 28.1 MB
------------------------------------------------------------------------------
                         ORCA GEOMETRY RELAXATION STEP
------------------------------------------------------------------------------

Reading the OPT-File                    .... done
Getting information on internals        .... done
Copying old internal coords+grads       .... done
Making the new internal coordinates     .... (new redundants).... done
Validating the new internal coordinates .... (new redundants).... done
Calculating the B-matrix                .... done
Calculating the G,G- and P matrices     .... done
Transforming gradient to internals      .... done
Projecting the internal gradient        .... done
Number of atoms                         ....  10
Number of internal coordinates          ....  36
Current Energy                          ....  -193.170226503 Eh
Current gradient norm                   ....     0.015337131 Eh/bohr
Maximum allowed component of the step   ....  0.300
Current trust radius                    ....  0.300
Evaluating the initial hessian          ....  (Almloef) done
Projecting the Hessian                  .... done
Forming the augmented Hessian           .... done
Diagonalizing the augmented Hessian     .... done
Last element of RFO vector              ....  0.998875441
Lowest eigenvalues of augmented Hessian:
 -0.000905728  0.012356273  0.012357087  0.012357700  0.133959785
Length of the computed step             ....  0.047464904
The final length of the internal step   ....  0.047464904
Converting the step to cartesian space:
 Initial RMS(Int)=    0.0079108173
Transforming coordinates:
 Iter   0:  RMS(Cart)=    0.0149927772 RMS(Int)=    0.0079113534
 Iter   1:  RMS(Cart)=    0.0000163097 RMS(Int)=    0.0000148245
 Iter   2:  RMS(Cart)=    0.0000001096 RMS(Int)=    0.0000000953
 Iter   3:  RMS(Cart)=    0.0000000010 RMS(Int)=    0.0000000005
done
Storing new coordinates                 .... done

                                .--------------------.
          ----------------------|Geometry convergence|-------------------------
          Item                value                   Tolerance       Converged
          ---------------------------------------------------------------------
          RMS gradient        0.0033419070            0.0001000000      NO
          MAX gradient        0.0101475840            0.0003000000      NO
          RMS step            0.0079108173            0.0020000000      NO
          MAX step            0.0247928600            0.0040000000      NO
          ........................................................
          Max(Bonds)      0.0131      Max(Angles)    0.30
          Max(Dihed)        0.18      Max(Improp)    0.00
          ---------------------------------------------------------------------

The optimization has not yet converged - more geometry cycles are needed


    ---------------------------------------------------------------------------
                         Redundant Internal Coordinates
                            (Angstroem and degrees)

        Definition                    Value    dE/dq     Step     New-Value
    ----------------------------------------------------------------------------
     1. B(C   3,H   0)                1.0938 -0.004222  0.0063    1.1001   
     2. B(C   4,H   1)                1.0924 -0.004446  0.0066    1.0990   
     3. B(C   5,O   2)                1.2178 -0.009076  0.0046    1.2224   
     4. B(C   5,C   4)                1.5057 -0.010094  0.0131    1.5188   
     5. B(C   5,C   3)                1.5057 -0.010148  0.0131    1.5189   
     6. B(H   6,C   4)                1.0880 -0.003416  0.0050    1.0930   
     7. B(H   7,C   3)                1.0881 -0.003412  0.0050    1.0930   
     8. B(H   8,C   3)                1.0922 -0.004458  0.0066    1.0988   
     9. B(H   9,C   4)                1.0936 -0.004223  0.0063    1.0999   
    10. A(C   5,C   3,H   8)          110.47 -0.001519    0.29    110.76   
    11. A(H   0,C   3,H   7)          109.48  0.000571   -0.14    109.34   
    12. A(H   0,C   3,C   5)          109.01 -0.001534    0.29    109.30   
    13. A(H   7,C   3,H   8)          110.28  0.000510   -0.12    110.17   
    14. A(H   0,C   3,H   8)          106.88  0.001142   -0.16    106.72   
    15. A(C   5,C   3,H   7)          110.63  0.000825   -0.16    110.47   
    16. A(C   5,C   4,H   6)          110.65  0.000865   -0.17    110.48   
    17. A(H   1,C   4,H   6)          110.20  0.000495   -0.11    110.09   
    18. A(H   1,C   4,C   5)          110.27 -0.001576    0.30    110.57   
    19. A(H   6,C   4,H   9)          109.61  0.000559   -0.14    109.47   
    20. A(C   5,C   4,H   9)          109.20 -0.001469    0.27    109.47   
    21. A(H   1,C   4,H   9)          106.83  0.001117   -0.15    106.69   
    22. A(C   3,C   5,C   4)          116.66  0.000969   -0.14    116.52   
    23. A(O   2,C   5,C   4)          121.68 -0.000412    0.06    121.74   
    24. A(O   2,C   5,C   3)          121.65 -0.000557    0.08    121.73   
    25. D(O   2,C   5,C   3,H   7)      7.62  0.000035   -0.07      7.55   
    26. D(O   2,C   5,C   3,H   8)    130.03  0.000206   -0.13    129.90   
    27. D(C   4,C   5,C   3,H   0)     67.06 -0.000190   -0.03     67.03   
    28. D(C   4,C   5,C   3,H   7)   -172.50  0.000047   -0.12   -172.62   
    29. D(C   4,C   5,C   3,H   8)    -50.09  0.000217   -0.18    -50.27   
    30. D(O   2,C   5,C   4,H   1)    128.21  0.000190   -0.07    128.14   
    31. D(O   2,C   5,C   4,H   6)      6.04  0.000049   -0.02      6.02   
    32. D(O   2,C   5,C   4,H   9)   -114.69 -0.000240    0.09   -114.60   
    33. D(C   3,C   5,C   4,H   1)    -51.67  0.000179   -0.02    -51.69   
    34. D(C   3,C   5,C   4,H   6)   -173.84  0.000038    0.03   -173.81   
    35. D(C   3,C   5,C   4,H   9)     65.43 -0.000251    0.14     65.56   
    36. D(O   2,C   5,C   3,H   0)   -112.82 -0.000201    0.02   -112.80   
    ----------------------------------------------------------------------------

         *************************************************************
         *                GEOMETRY OPTIMIZATION CYCLE   2            *
         *************************************************************
---------------------------------
CARTESIAN COORDINATES (ANGSTROEM)
---------------------------------
  H      1.824779   -2.257768   -2.985208
  H     -0.449053   -0.840430   -3.152413
  O     -0.500536   -3.463446   -1.400297
  C      1.163348   -3.129840   -3.095666
  C     -1.027595   -1.763761   -3.008934
  C     -0.157403   -2.849424   -2.400011
  H     -1.895384   -1.568166   -2.373835
  H      1.646292   -4.008034   -2.659440
  H      1.011949   -3.277184   -4.173935
  H     -1.366989   -2.081888   -4.005630

----------------------------
CARTESIAN COORDINATES (A.U.)
----------------------------
  NO LB      ZA    FRAG     MASS         X           Y           Z
   0 H     1.0000    0     1.008    3.448333   -4.266562   -5.641226
   1 H     1.0000    0     1.008   -0.848586   -1.588183   -5.957197
   2 O     8.0000    0    15.999   -0.945875   -6.544964   -2.646179
   3 C     6.0000    0    12.011    2.198409   -5.914541   -5.849961
   4 C     6.0000    0    12.011   -1.941872   -3.333024   -5.686061
   5 C     6.0000    0    12.011   -0.297448   -5.384630   -4.535363
   6 H     1.0000    0     1.008   -3.581757   -2.963405   -4.485898
   7 H     1.0000    0     1.008    3.111041   -7.574086   -5.025613
   8 H     1.0000    0     1.008    1.912307   -6.192979   -7.887594
   9 H     1.0000    0     1.008   -2.583234   -3.934199   -7.569544

--------------------------------
INTERNAL COORDINATES (ANGSTROEM)
--------------------------------
 H      0   0   0     0.000000000000     0.00000000     0.00000000
 H      1   0   0     2.684606650255     0.00000000     0.00000000
 O      1   2   0     3.061485256689    66.22418753     0.00000000
 C      1   2   3     1.100092271838    84.43432707    41.91379426
 C      2   1   3     1.099015887730    89.66689066   331.03281301
 C      3   1   2     1.222370713546    33.44347791    34.67086448
 H      5   2   1     1.093007673167   110.08796476   141.28105373
 H      4   1   2     1.093047484226   109.34047147   204.37966994
 H      4   1   2     1.098769765225   106.71932644    85.23830402
 H      5   2   1     1.099908160076   106.68609893   259.97408807

---------------------------
INTERNAL COORDINATES (A.U.)
---------------------------
 H      0   0   0     0.000000000000     0.00000000     0.00000000
 H      1   0   0     5.073171346286     0.00000000     0.00000000
 O      1   2   0     5.785368698180    66.22418753     0.00000000
 C      1   2   3     2.078873115816    84.43432707    41.91379426
 C      2   1   3     2.076839044638    89.66689066   331.03281301
 C      3   1   2     2.309945882728    33.44347791    34.67086448
 H      5   2   1     2.065485164560   110.08796476   141.28105373
 H      4   1   2     2.065560396558   109.34047147   204.37966994
 H      4   1   2     2.076373940508   106.71932644    85.23830402
 H      5   2   1     2.078525195009   106.68609893   259.97408807



           ************************************************************
           *        Program running with 6 parallel MPI-processes     *
           *              working on a common directory               *
           ************************************************************
------------------------------------------------------------------------------
                   ___                                                        
                  /   \      - P O W E R E D   B Y -                         
                 /     \                                                     
                 |  |  |   _    _      __       _____    __    __             
                 |  |  |  | |  | |    /  \     |  _  \  |  |  /  |          
                  \  \/   | |  | |   /    \    | | | |  |  | /  /          
                 / \  \   | |__| |  /  /\  \   | |_| |  |  |/  /          
                |  |  |   |  __  | /  /__\  \  |    /   |      \           
                |  |  |   | |  | | |   __   |  |    \   |  |\   \          
                \     /   | |  | | |  |  |  |  | |\  \  |  | \   \       
                 \___/    |_|  |_| |__|  |__|  |_| \__\ |__|  \__/        
                                                                              
                      - O R C A' S   B I G   F R I E N D -                    
                                      &                                       
                       - I N T E G R A L  F E E D E R -                       
                                                                              
 v1 FN, 2020, v2 2021                                                         
------------------------------------------------------------------------------


Reading SHARK input file acetone.SHARKINP.tmp ... ok
----------------------
SHARK INTEGRAL PACKAGE
----------------------

Number of atoms                             ...     10
Number of basis functions                   ...    160
Number of shells                            ...     68
Maximum angular momentum                    ...      3
Integral batch strategy                     ... SHARK/LIBINT Hybrid
RI-J (if used) integral strategy            ... SPLIT-RIJ (Revised 2003 algorithm where possible)
Printlevel                                  ...      1
Contraction scheme used                     ... SEGMENTED contraction
Coulomb Range Separation                    ... NOT USED
Exchange Range Separation                   ... NOT USED
Finite Nucleus Model                        ... NOT USED
Auxiliary Coulomb fitting basis             ... AVAILABLE
   # of basis functions in Aux-J            ...    262
   # of shells in Aux-J                     ...     90
   Maximum angular momentum in Aux-J        ...      4
Auxiliary J/K fitting basis                 ... NOT available
Auxiliary Correlation fitting basis         ... NOT available
Auxiliary 'external' fitting basis          ... NOT available
Integral threshold                          ...     2.500000e-11
Primitive cut-off                           ...     2.500000e-12
Primitive pair pre-selection threshold      ...     2.500000e-12

Calculating pre-screening integrals         ... done (  0.0 sec) Dimension = 68
Organizing shell pair data                  ... done (  0.0 sec)
Shell pair information
Total number of shell pairs                 ...      2346
Shell pairs after pre-screening             ...      2298
Total number of primitive shell pairs       ...      6892
Primitive shell pairs kept                  ...      5523
          la=0 lb=0:    703 shell pairs
          la=1 lb=0:    676 shell pairs
          la=1 lb=1:    171 shell pairs
          la=2 lb=0:    302 shell pairs
          la=2 lb=1:    144 shell pairs
          la=2 lb=2:     36 shell pairs
          la=3 lb=0:    152 shell pairs
          la=3 lb=1:     72 shell pairs
          la=3 lb=2:     32 shell pairs
          la=3 lb=3:     10 shell pairs

Calculating one electron integrals          ... done (  0.0 sec)
Calculating RI/J V-Matrix + Cholesky decomp.... done (  0.0 sec)
Calculating Nuclear repulsion               ... done (  0.0 sec) ENN=    118.828050610903 Eh

SHARK setup successfully completed in   0.1 seconds

Maximum memory used throughout the entire GTOINT-calculation: 15.9 MB


           ************************************************************
           *        Program running with 6 parallel MPI-processes     *
           *              working on a common directory               *
           ************************************************************

Diagonalization of the overlap matrix:
Smallest eigenvalue                        ... 4.162e-04
Time for diagonalization                   ...    0.002 sec
Threshold for overlap eigenvalues          ... 1.000e-08
Number of eigenvalues below threshold      ... 0
Time for construction of square roots      ...    0.002 sec
Total time needed                          ...    0.005 sec

-------------------
DFT GRID GENERATION
-------------------

General Integration Accuracy     IntAcc      ... 4.388
Radial Grid Type                 RadialGrid  ... OptM3 with GC (2021)
Angular Grid (max. ang.)         AngularGrid ... 4 (Lebedev-302)
Angular grid pruning method      GridPruning ... 4 (adaptive)
Weight generation scheme         WeightScheme... Becke
Basis function cutoff            BFCut       ... 1.0000e-11
Integration weight cutoff        WCut        ... 1.0000e-14
Angular grids for H and He will be reduced by one unit
Partially contracted basis set               ... off
Rotationally invariant grid construction     ... off

Total number of grid points                  ...    43793
Total number of batches                      ...      689
Average number of points per batch           ...       63
Average number of grid points per atom       ...     4379
Time for grid setup =    0.167 sec

--------------
SCF ITERATIONS
--------------
ITER       Energy         Delta-E        Max-DP      RMS-DP      [F,P]     Damp
               ***  Starting incremental Fock matrix formation  ***
                      *** Initiating the SOSCF procedure ***
                      *** Re-Reading the Fockian *** 
                      *** Removing any level shift *** 
ITER      Energy       Delta-E        Grad      Rot      Max-DP    RMS-DP
  0   -193.15845371 -193.1584537060  0.001654  0.001654  0.010921  0.000195
               *** Restarting incremental Fock matrix formation ***
  1   -193.15852756  -0.0000738565  0.001330  0.005237  0.003582  0.000098
  2   -193.15843678   0.0000907829  0.004450  0.004605  0.006458  0.000123
  3   -193.15854410  -0.0001073185  0.000498  0.001054  0.007693  0.000130
  4   -193.15853832   0.0000057829  0.000503  0.000527  0.004650  0.000079
  5   -193.15854759  -0.0000092749  0.000006  0.000009  0.000016  0.000001
  6   -193.15854759   0.0000000008  0.000003  0.000003  0.000006  0.000000
                  ***Gradient check signals convergence***
              ***Rediagonalizing the Fockian in SOSCF/NRSCF***

               *****************************************************
               *                     SUCCESS                       *
               *           SCF CONVERGED AFTER   7 CYCLES          *
               *****************************************************

Total Energy       :         -193.15854759 Eh           -5256.11130 eV
  Last Energy change         ...   -3.6385e-09  Tolerance :   1.0000e-08
  Last MAX-Density change    ...    6.7937e-06  Tolerance :   1.0000e-07
             **** THE GBW FILE WAS UPDATED (acetone.gbw) ****
             **** DENSITY acetone.scfp WAS UPDATED ****
             **** ENERGY FILE WAS UPDATED (acetone.en.tmp) ****
             **** THE GBW FILE WAS UPDATED (acetone.gbw) ****
             **** DENSITY acetone.scfp WAS UPDATED ****
Total SCF time: 0 days 0 hours 0 min 1 sec 

Maximum memory used throughout the entire SCF-calculation: 16.0 MB


-------------------------------------------------------------------------------
                          DFT DISPERSION CORRECTION                            
                                                                               
                              DFTD3 V3.1  Rev 1                                
                          USING Becke-Johnson damping                          
-------------------------------------------------------------------------------
-------------------------   ----------------
Dispersion correction           -0.012208978
-------------------------   ----------------


-------------------------   --------------------
FINAL SINGLE POINT ENERGY      -193.170756571036
-------------------------   --------------------



           ************************************************************
           *        Program running with 6 parallel MPI-processes     *
           *              working on a common directory               *
           ************************************************************
------------------------------------------------------------------------------
                         ORCA SCF GRADIENT CALCULATION
------------------------------------------------------------------------------

Gradient of the Kohn-Sham DFT energy:
Kohn-Sham wavefunction type      ... RKS
Hartree-Fock exchange scaling    ...    0.000
Number of operators              ...    1
Number of atoms                  ...   10
Basis set dimensions             ...  160
Integral neglect threshold       ... 2.5e-11
Integral primitive cutoff        ... 2.5e-12
SHARK Integral package           ... ON

Nuc. rep. gradient       (SHARK) ... done (  0.0 sec)
HCore & Overlap gradient (SHARK) ... done (  0.0 sec)
RI-J gradient            (SHARK) ... done (  0.1 sec)
Exchange-correlation gradient    ... done
Dispersion correction            ... done

------------------
CARTESIAN GRADIENT
------------------

   1   H   :   -0.000400144    0.000041279    0.000183818
   2   H   :    0.000185478   -0.000327228    0.000151186
   3   O   :   -0.000042358   -0.000142594    0.000322508
   4   C   :   -0.001515702   -0.000471403    0.001516500
   5   C   :    0.000381688   -0.001539066    0.001571350
   6   C   :    0.001182369    0.002172905   -0.003575183
   7   H   :    0.000133768    0.000183196   -0.000320711
   8   H   :    0.000083972    0.000226430   -0.000297416
   9   H   :   -0.000302813    0.000110164    0.000242187
  10   H   :    0.000293742   -0.000253683    0.000205762

Difference to translation invariance:
           :    0.0000000000   -0.0000000000    0.0000000000

Difference to rotation invariance:
           :   -0.0000366258    0.0000398616    0.0000721295

Norm of the cartesian gradient     ...    0.0054632392
RMS gradient                       ...    0.0009974465
MAX gradient                       ...    0.0035751834

-------
TIMINGS
-------

Total SCF gradient time            ...        0.693 sec

One electron gradient       ....       0.024 sec  (  3.4%)
RI-J Coulomb gradient       ....       0.133 sec  ( 19.2%)
XC gradient                 ....       0.417 sec  ( 60.2%)

Maximum memory used throughout the entire SCFGRAD-calculation: 28.1 MB
------------------------------------------------------------------------------
                         ORCA GEOMETRY RELAXATION STEP
------------------------------------------------------------------------------

Reading the OPT-File                    .... done
Getting information on internals        .... done
Copying old internal coords+grads       .... done
Making the new internal coordinates     .... (new redundants).... done
Validating the new internal coordinates .... (new redundants).... done
Calculating the B-matrix                .... done
Calculating the G,G- and P matrices     .... done
Transforming gradient to internals      .... done
Projecting the internal gradient        .... done
Number of atoms                         ....  10
Number of internal coordinates          ....  36
Current Energy                          ....  -193.170756571 Eh
Current gradient norm                   ....     0.005463239 Eh/bohr
Maximum allowed component of the step   ....  0.300
Current trust radius                    ....  0.300
Updating the Hessian (BFGS)             .... done
Forming the augmented Hessian           .... done
Diagonalizing the augmented Hessian     .... done
Last element of RFO vector              ....  0.999882903
Lowest eigenvalues of augmented Hessian:
 -0.000057256  0.012351284  0.012357593  0.012359271  0.133917997
Length of the computed step             ....  0.015304759
The final length of the internal step   ....  0.015304759
Converting the step to cartesian space:
 Initial RMS(Int)=    0.0025507932
Transforming coordinates:
 Iter   0:  RMS(Cart)=    0.0046535358 RMS(Int)=    0.0025508457
 Iter   1:  RMS(Cart)=    0.0000038481 RMS(Int)=    0.0000028453
 Iter   2:  RMS(Cart)=    0.0000000139 RMS(Int)=    0.0000000052
done
Storing new coordinates                 .... done

                                .--------------------.
          ----------------------|Geometry convergence|-------------------------
          Item                value                   Tolerance       Converged
          ---------------------------------------------------------------------
          Energy change      -0.0005300677            0.0000050000      NO
          RMS gradient        0.0006836646            0.0001000000      NO
          MAX gradient        0.0025966182            0.0003000000      NO
          RMS step            0.0025507932            0.0020000000      NO
          MAX step            0.0083296033            0.0040000000      NO
          ........................................................
          Max(Bonds)      0.0044      Max(Angles)    0.17
          Max(Dihed)        0.23      Max(Improp)    0.00
          ---------------------------------------------------------------------

The optimization has not yet converged - more geometry cycles are needed


    ---------------------------------------------------------------------------
                         Redundant Internal Coordinates
                            (Angstroem and degrees)

        Definition                    Value    dE/dq     Step     New-Value
    ----------------------------------------------------------------------------
     1. B(C   3,H   0)                1.1001 -0.000191  0.0005    1.1006   
     2. B(C   4,H   1)                1.0990 -0.000195  0.0005    1.0995   
     3. B(C   5,O   2)                1.2224  0.000347 -0.0001    1.2223   
     4. B(C   5,C   4)                1.5188 -0.002597  0.0044    1.5232   
     5. B(C   5,C   3)                1.5189 -0.002595  0.0044    1.5233   
     6. B(H   6,C   4)                1.0930 -0.000261  0.0006    1.0936   
     7. B(H   7,C   3)                1.0930 -0.000262  0.0006    1.0936   
     8. B(H   8,C   3)                1.0988 -0.000211  0.0005    1.0993   
[...]
     18       0.000000   0.000000   0.000000   0.000000   0.000000   0.000000
     19       0.000000   0.000000   0.000000   0.000000   0.000000   0.000000
     20       0.000000   0.000000   0.000000   0.000000   0.000000   0.000000
     21       0.000000   0.000000   0.000000   0.000000   0.000000   0.000000
     22       0.000000   0.000000   0.000000   0.000000   0.000000   0.000000
     23       0.000000   0.000000   0.000000   0.000000   0.000000   0.000000
     24       0.000000   0.000000   0.000000   0.000000   0.000000   0.000000
     25       0.000000   0.000000   0.000000   0.000000   0.000000   0.000000
     26       0.000000   0.000000   0.000000   0.000000   0.000000   0.000000
     27       0.000000   0.000000   0.000000   0.000000   0.000000   0.000000
     28       0.000000   0.000000   0.000000   0.000000   0.000000   0.000000
     29       0.000000   0.000000   0.000000   0.000000   0.000000   0.000000
                  6          7          8          9         10         11    
      0       0.116833  -0.133281   0.244769   0.313994  -0.017542   0.248901
      1      -0.104197   0.184341  -0.241129  -0.226467   0.150641  -0.041369
      2       0.366318  -0.398158   0.099582  -0.254048  -0.129542  -0.163059
      3       0.073802   0.091533  -0.362129  -0.317087  -0.095831  -0.068489
      4      -0.130488  -0.075576   0.160652   0.137156  -0.044231   0.133557
      5      -0.445169  -0.331025   0.106891  -0.187575   0.188788  -0.081830
      6      -0.002673  -0.035782   0.035656  -0.063780  -0.257695  -0.048926
      7      -0.003766  -0.048200   0.066305  -0.056370   0.175226  -0.086672
      8      -0.004303  -0.041572  -0.106685  -0.056430   0.020279   0.141115
      9       0.010836   0.016860   0.104939   0.002506   0.154666   0.275696
     10       0.016742   0.023036  -0.132385  -0.011740   0.020508  -0.066108
     11       0.013457   0.020995   0.076008  -0.021968  -0.140831  -0.116203
     12      -0.007199   0.019850  -0.160250  -0.005429   0.061979  -0.196740
     13      -0.011830   0.026204   0.032073  -0.024230  -0.150982   0.206422
     14      -0.010323   0.021835   0.086346  -0.001724   0.133383  -0.110118
     15       0.000556   0.011099   0.037401   0.130213   0.095100  -0.042650
     16       0.001102   0.010697   0.064815   0.184119  -0.095666  -0.076223
     17      -0.000075   0.010935  -0.105619   0.159187  -0.025428   0.121077
     18       0.197385   0.193479  -0.055160  -0.159820   0.175716  -0.244726
     19       0.266498   0.253845  -0.228616  -0.196548  -0.389044   0.392182
     20       0.185035   0.190479   0.308772  -0.161086   0.357615  -0.220845
     21      -0.140440   0.210422  -0.151833  -0.159580   0.421879   0.417593
     22      -0.177423   0.261849  -0.155550  -0.183374   0.054999  -0.078963
     23      -0.205425   0.282261   0.312842  -0.184172  -0.361595  -0.281516
     24       0.100198  -0.080256   0.302066  -0.386227   0.008934   0.134838
     25       0.384094  -0.416731  -0.272804   0.006847   0.166594  -0.018480
     26      -0.050702   0.094612   0.068827   0.025779  -0.141282  -0.105694
     27      -0.355318  -0.283645  -0.330226   0.204296  -0.117665  -0.144185
     28      -0.250354  -0.156874   0.108024  -0.408204  -0.025528   0.225031
     29       0.181790   0.181014   0.120347   0.042253   0.155888  -0.132777
                 12         13         14         15         16         17    
      0      -0.340670  -0.351048  -0.252940  -0.332051  -0.023285   0.250167
      1       0.163852   0.154171   0.137927   0.103252   0.037075  -0.191638
      2       0.036312   0.274917  -0.052188   0.277745  -0.199924  -0.221764
      3      -0.346821  -0.277021   0.254151   0.240576  -0.014363   0.372432
      4       0.316065   0.206026  -0.245881  -0.207671   0.051305  -0.165161
      5      -0.027978  -0.249425  -0.031027   0.282488   0.157955   0.237936
      6       0.014006  -0.002967   0.029060  -0.020193   0.054327  -0.006435
      7      -0.009815  -0.002958   0.052486  -0.026990  -0.033741   0.004725
      8       0.000771   0.005563  -0.084269  -0.024167  -0.002795   0.000229
      9      -0.068550  -0.028795   0.022063  -0.055367   0.086503  -0.088490
     10      -0.057129  -0.064345  -0.091848  -0.085490  -0.088169   0.020735
     11       0.100868  -0.066945   0.090059  -0.077438   0.034313   0.039373
     12       0.011693   0.035831  -0.086085  -0.059089   0.112354  -0.075350
     13       0.086012   0.069273  -0.021559  -0.089992  -0.039853   0.085058
     14      -0.106599   0.056244   0.095126  -0.069602  -0.043056  -0.047501
     15       0.110860  -0.007327   0.010569   0.103124  -0.323071   0.044854
     16      -0.063164   0.000839   0.015062   0.154656   0.205110  -0.032519
     17       0.000520   0.004541  -0.027653   0.131137   0.015081  -0.003356
     18       0.141998  -0.156344  -0.234304   0.163653   0.258912   0.108097
     19      -0.296783  -0.095353   0.382478   0.175321  -0.435963  -0.228153
     20       0.193172  -0.157340  -0.241391   0.156106   0.281693   0.280925
     21       0.310679   0.152296   0.414057   0.170902   0.475166   0.217617
     22      -0.007132   0.131178  -0.056620   0.162570  -0.057384   0.074713
     23      -0.225508   0.121836  -0.288365   0.163726  -0.339069  -0.170628
     24      -0.339450   0.442255  -0.284675   0.385118   0.039917   0.366624
     25       0.235725   0.002567   0.221722   0.068128   0.159815   0.006127
     26       0.093717  -0.131976   0.082050  -0.148104  -0.010885  -0.031657
     27      -0.291521   0.240423   0.279400  -0.172669  -0.118533   0.205003
     28       0.152531  -0.420347  -0.100831   0.374941  -0.137872  -0.443989
     29      -0.019855   0.127088  -0.008651  -0.158873   0.079064   0.038398
                 18         19         20         21         22         23    
      0      -0.287950   0.074366   0.257554   0.023217  -0.248174  -0.055032
      1       0.216083  -0.094773  -0.255116  -0.042866   0.216716   0.014073
      2       0.322331   0.372189   0.305270   0.337568  -0.073497   0.197438
      3       0.276668   0.016859   0.229363  -0.181407   0.283154   0.107470
      4      -0.114552  -0.088714  -0.116996   0.166642  -0.174732  -0.049639
      5       0.222424  -0.454737   0.002354   0.423384  -0.123424   0.206323
      6       0.002069   0.002971   0.005088   0.009044  -0.001873  -0.123651
      7       0.001642  -0.005349   0.007845   0.015884  -0.000871  -0.221207
      8      -0.003801   0.001787  -0.013595  -0.025996  -0.001534   0.357992
      9       0.094144  -0.013838  -0.026134  -0.015803   0.009354  -0.008431
     10      -0.010165   0.029064  -0.007976   0.043628   0.023024  -0.017964
     11      -0.052041  -0.012810  -0.034996   0.000595   0.026108   0.030684
     12      -0.042740  -0.034568   0.029487   0.021273   0.012768  -0.012244
     13       0.057461   0.002449   0.027469  -0.024880   0.027825  -0.018390
     14      -0.041550   0.022721   0.013149  -0.027759   0.014335   0.028742
     15      -0.007700  -0.011147  -0.004123  -0.006376   0.021749   0.190986
     16      -0.000152   0.012937  -0.003063  -0.011190   0.016838   0.341710
     17       0.007566   0.001473   0.009059   0.018133   0.018319  -0.552445
     18       0.099293   0.118510  -0.271671   0.047280  -0.250657  -0.088140
     19      -0.196791  -0.186415  -0.274422   0.350923  -0.356974   0.190518
     20       0.219550   0.265169  -0.298432  -0.085176  -0.228070  -0.171598
     21      -0.296782   0.203376   0.334504   0.136134  -0.219286   0.208034
     22      -0.076356   0.037539   0.301016  -0.065515  -0.297299   0.022620
     23       0.227580  -0.206509   0.201923  -0.350220  -0.361087  -0.173956
     24      -0.465333  -0.113533  -0.247654  -0.013009   0.238516  -0.200216
     25      -0.059499  -0.391576   0.022895  -0.512356  -0.288516  -0.114989
     26       0.047296   0.068834   0.009007   0.083853   0.027030   0.057433
     27       0.120510   0.362878  -0.373676  -0.144967  -0.296574  -0.038896
     28      -0.356692   0.279181   0.002330  -0.238994   0.108095  -0.190105
     29       0.046201  -0.208956   0.148037   0.110823   0.083219   0.076938
                 24         25         26         27         28         29    
      0       0.287329  -0.311486   0.257830   0.297684   0.128599  -0.046659
      1       0.383762  -0.418724   0.341118   0.393432   0.152827  -0.055433
      2       0.055017  -0.058764   0.031371   0.037176   0.032003  -0.011122
      3      -0.238890  -0.216433  -0.293617   0.255588  -0.043697  -0.140512
      4      -0.373509  -0.336332  -0.467884   0.406810  -0.071971  -0.238245
      5       0.046224   0.041556   0.079897  -0.070213   0.006753   0.023023
      6      -0.000210  -0.000284   0.000012  -0.000059  -0.000113  -0.000504
      7       0.000136  -0.000530  -0.000009  -0.000170   0.000536  -0.000523
      8       0.000055   0.000842   0.000035  -0.000128  -0.000472   0.001054
      9      -0.027401   0.030529  -0.023819  -0.027452   0.025115  -0.008336
     10      -0.009660   0.010154  -0.036941  -0.042096  -0.067114   0.022229
     11       0.019924  -0.020127  -0.040166  -0.045309   0.049608  -0.016536
     12      -0.011392  -0.011745   0.031800  -0.028447   0.021000   0.063340
     13       0.021895   0.019752   0.049794  -0.043633   0.000357   0.001020
     14      -0.028721  -0.026530   0.032848  -0.029252  -0.019589  -0.059946
     15       0.000847   0.000374   0.000039  -0.001109   0.000169   0.001304
     16      -0.000759   0.000739   0.000045  -0.000737  -0.001411   0.001475
     17      -0.000257  -0.001117   0.000075  -0.000829   0.001266  -0.002855
     18       0.209745   0.204030   0.055779  -0.042597  -0.233533  -0.694929
     19      -0.041889  -0.042044   0.001834  -0.001746   0.051017   0.152090
     20      -0.164166  -0.157624  -0.026182   0.020229   0.173312   0.514313
     21       0.101779  -0.117420  -0.034608  -0.036357  -0.384582   0.125713
     22      -0.200379   0.227670   0.041421   0.045371   0.705589  -0.230181
     23       0.104688  -0.117129  -0.035684  -0.037845  -0.355938   0.115871
     24      -0.065255   0.069064   0.065656   0.073497  -0.039810   0.013268
     25      -0.063699   0.066162   0.062653   0.069344  -0.053150   0.019393
     26      -0.397895   0.414777   0.487489   0.546121  -0.275102   0.098838
     27       0.160787   0.148474  -0.146795   0.132408   0.023307   0.080181
     28       0.156817   0.146535  -0.132691   0.119801   0.019453   0.066076
     29       0.463144   0.433061  -0.451143   0.404886   0.053688   0.187695


-----------
IR SPECTRUM
-----------

 Mode   freq       eps      Int      T**2         TX        TY        TZ
       cm**-1   L/(mol*cm) km/mol    a.u.
----------------------------------------------------------------------------
  6:     33.01   0.000001    0.01  0.000011  (-0.003008  0.001118 -0.000549)
  7:    118.16   0.000001    0.00  0.000002  (-0.000343 -0.000610  0.001055)
  8:    373.36   0.000255    1.29  0.000213  (-0.002995 -0.007947  0.011880)
  9:    473.64   0.000073    0.37  0.000048  ( 0.005404  0.003290  0.002886)
 10:    519.63   0.002397   12.11  0.001439  ( 0.031964 -0.020389 -0.001389)
 11:    751.90   0.000598    3.02  0.000248  (-0.003831 -0.007823  0.013125)
 12:    857.31   0.002948   14.90  0.001073  ( 0.028447 -0.016239 -0.000129)
 13:    860.31   0.000017    0.09  0.000006  (-0.001060  0.001917 -0.001176)
 14:   1055.36   0.000030    0.15  0.000009  (-0.000567 -0.001476  0.002539)
 15:   1084.38   0.000374    1.89  0.000108  ( 0.006393  0.005356  0.006180)
 16:   1190.76   0.016224   81.99  0.004252  (-0.055847  0.033611  0.001785)
 17:   1343.07   0.008707   44.00  0.002023  ( 0.038241 -0.023504  0.002877)
 18:   1346.92   0.003988   20.16  0.000924  (-0.012998 -0.012509  0.024467)
 19:   1425.71   0.000166    0.84  0.000036  ( 0.004792 -0.001174 -0.003463)
 20:   1428.45   0.001450    7.33  0.000317  (-0.004619 -0.010590  0.013542)
 21:   1435.89   0.004282   21.64  0.000931  (-0.008306 -0.015624  0.024849)
 22:   1450.82   0.003705   18.72  0.000797  (-0.011613 -0.019001 -0.017347)
 23:   1705.12   0.032349  163.48  0.005920  ( 0.021702  0.038796 -0.062804)
 24:   2957.35   0.000357    1.81  0.000038  (-0.005631  0.002317 -0.000789)
 25:   2961.88   0.001601    8.09  0.000169  ( 0.003996  0.006837 -0.010294)
 26:   3004.55   0.000225    1.14  0.000023  ( 0.001836  0.003117 -0.003205)
 27:   3011.07   0.003857   19.49  0.000400  (-0.007513 -0.014079 -0.012044)
 28:   3066.68   0.002431   12.29  0.000247  ( 0.010944 -0.010673  0.003707)
 29:   3067.92   0.001924    9.72  0.000196  ( 0.009737  0.001451 -0.009938)

* The epsilon (eps) is given for a Dirac delta lineshape.
** The dipole moment derivative (T) already includes vibrational overlap.

The first frequency considered to be a vibration is 6
The total number of vibrations considered is 24


--------------------------
THERMOCHEMISTRY AT 298.15K
--------------------------

Temperature         ... 298.15 K
Pressure            ... 1.00 atm
Total Mass          ... 58.08 AMU

Throughout the following assumptions are being made:
  (1) The electronic state is orbitally nondegenerate
  (2) There are no thermally accessible electronically excited states
  (3) Hindered rotations indicated by low frequency modes are not
      treated as such but are treated as vibrations and this may
      cause some error
  (4) All equations used are the standard statistical mechanics
      equations for an ideal gas
  (5) All vibrations are strictly harmonic

freq.      33.01  E(vib)   ...       0.55 
freq.     118.16  E(vib)   ...       0.44 
freq.     373.36  E(vib)   ...       0.21 
freq.     473.64  E(vib)   ...       0.15 
freq.     519.63  E(vib)   ...       0.13 
freq.     751.90  E(vib)   ...       0.06 
freq.     857.31  E(vib)   ...       0.04 
freq.     860.31  E(vib)   ...       0.04 
freq.    1055.36  E(vib)   ...       0.02 
freq.    1084.38  E(vib)   ...       0.02 
freq.    1190.76  E(vib)   ...       0.01 
freq.    1343.07  E(vib)   ...       0.01 
freq.    1346.92  E(vib)   ...       0.01 
freq.    1425.71  E(vib)   ...       0.00 
freq.    1428.45  E(vib)   ...       0.00 
freq.    1435.89  E(vib)   ...       0.00 
freq.    1450.82  E(vib)   ...       0.00 
freq.    1705.12  E(vib)   ...       0.00 
freq.    2957.35  E(vib)   ...       0.00 
freq.    2961.88  E(vib)   ...       0.00 
freq.    3004.55  E(vib)   ...       0.00 
freq.    3011.07  E(vib)   ...       0.00 
freq.    3066.68  E(vib)   ...       0.00 
freq.    3067.92  E(vib)   ...       0.00 

------------
INNER ENERGY
------------

The inner energy is: U= E(el) + E(ZPE) + E(vib) + E(rot) + E(trans)
    E(el)   - is the total energy from the electronic structure calculation
              = E(kin-el) + E(nuc-el) + E(el-el) + E(nuc-nuc)
    E(ZPE)  - the the zero temperature vibrational energy from the frequency calculation
    E(vib)  - the the finite temperature correction to E(ZPE) due to population
              of excited vibrational states
    E(rot)  - is the rotational thermal energy
    E(trans)- is the translational thermal energy

Summary of contributions to the inner energy U:
Electronic energy                ...   -193.17079617 Eh
Zero point energy                ...      0.08092791 Eh      50.78 kcal/mol
Thermal vibrational correction   ...      0.00270173 Eh       1.70 kcal/mol
Thermal rotational correction    ...      0.00141627 Eh       0.89 kcal/mol
Thermal translational correction ...      0.00141627 Eh       0.89 kcal/mol
-----------------------------------------------------------------------
Total thermal energy                   -193.08433399 Eh


Summary of corrections to the electronic energy:
(perhaps to be used in another calculation)
Total thermal correction                  0.00553427 Eh       3.47 kcal/mol
Non-thermal (ZPE) correction              0.08092791 Eh      50.78 kcal/mol
-----------------------------------------------------------------------
Total correction                          0.08646219 Eh      54.26 kcal/mol


--------
ENTHALPY
--------

The enthalpy is H = U + kB*T
                kB is Boltzmann's constant
Total free energy                 ...   -193.08433399 Eh 
Thermal Enthalpy correction       ...      0.00094421 Eh       0.59 kcal/mol
-----------------------------------------------------------------------
Total Enthalpy                    ...   -193.08338978 Eh


Note: Only C1 symmetry has been detected, increase convergence thresholds 
      if your molecule has a higher symmetry. Symmetry factor of 1.0 is   
      used for the rotational entropy correction. 
 

Note: Rotational entropy computed according to Herzberg 
Infrared and Raman Spectra, Chapter V,1, Van Nostrand Reinhold, 1945 
Point Group:  C1, Symmetry Number:   1  
Rotational constants in cm-1:     0.333654     0.280817     0.161657 

Vibrational entropy computed according to the QRRHO of S. Grimme
Chem.Eur.J. 2012 18 9955


-------
ENTROPY
-------

The entropy contributions are T*S = T*(S(el)+S(vib)+S(rot)+S(trans))
     S(el)   - electronic entropy
     S(vib)  - vibrational entropy
     S(rot)  - rotational entropy
     S(trans)- translational entropy
The entropies will be listed as multiplied by the temperature to get
units of energy

Electronic entropy                ...      0.00000000 Eh      0.00 kcal/mol
Vibrational entropy               ...      0.00486626 Eh      3.05 kcal/mol
Rotational entropy                ...      0.01148886 Eh      7.21 kcal/mol
Translational entropy             ...      0.01810171 Eh     11.36 kcal/mol
-----------------------------------------------------------------------
Final entropy term                ...      0.03445683 Eh     21.62 kcal/mol

In case the symmetry of your molecule has not been determined correctly
or in case you have a reason to use a different symmetry number we print 
out the resulting rotational entropy values for sn=1,12 :
 --------------------------------------------------------
|  sn= 1 | S(rot)=       0.01148886 Eh      7.21 kcal/mol|
|  sn= 2 | S(rot)=       0.01083440 Eh      6.80 kcal/mol|
|  sn= 3 | S(rot)=       0.01045157 Eh      6.56 kcal/mol|
|  sn= 4 | S(rot)=       0.01017995 Eh      6.39 kcal/mol|
|  sn= 5 | S(rot)=       0.00996926 Eh      6.26 kcal/mol|
|  sn= 6 | S(rot)=       0.00979711 Eh      6.15 kcal/mol|
|  sn= 7 | S(rot)=       0.00965157 Eh      6.06 kcal/mol|
|  sn= 8 | S(rot)=       0.00952549 Eh      5.98 kcal/mol|
|  sn= 9 | S(rot)=       0.00941428 Eh      5.91 kcal/mol|
|  sn=10 | S(rot)=       0.00931480 Eh      5.85 kcal/mol|
|  sn=11 | S(rot)=       0.00922481 Eh      5.79 kcal/mol|
|  sn=12 | S(rot)=       0.00914266 Eh      5.74 kcal/mol|
 --------------------------------------------------------


-------------------
GIBBS FREE ENERGY
-------------------

The Gibbs free energy is G = H - T*S

Total enthalpy                    ...   -193.08338978 Eh 
Total entropy correction          ...     -0.03445683 Eh    -21.62 kcal/mol
-----------------------------------------------------------------------
Final Gibbs free energy         ...   -193.11784661 Eh

For completeness - the Gibbs free energy minus the electronic energy
G-E(el)                           ...      0.05294957 Eh     33.23 kcal/mol



Timings for individual modules:

Sum of individual times         ...      102.982 sec (=   1.716 min)
GTO integral calculation        ...        2.863 sec (=   0.048 min)   2.8 %
SCF iterations                  ...        9.222 sec (=   0.154 min)   9.0 %
SCF Gradient evaluation         ...        6.018 sec (=   0.100 min)   5.8 %
Geometry relaxation             ...        0.052 sec (=   0.001 min)   0.1 %
Numerical frequency calculation ...       84.828 sec (=   1.414 min)  82.4 %
                             ****ORCA TERMINATED NORMALLY****
TOTAL RUN TIME: 0 days 0 hours 1 minutes 42 seconds 521 msec
