
                                 *****************
                                 * O   R   C   A *
                                 *****************

                                            #,                                       
                                            ###                                      
                                            ####                                     
                                            #####                                    
                                            ######                                   
                                           ########,                                 
                                     ,,################,,,,,                         
                               ,,#################################,,                 
                          ,,##########################################,,             
                       ,#########################################, ''#####,          
                    ,#############################################,,   '####,        
                  ,##################################################,,,,####,       
                ,###########''''           ''''###############################       
              ,#####''   ,,,,##########,,,,          '''####'''          '####       
            ,##' ,,,,###########################,,,                        '##       
           ' ,,###''''                  '''############,,,                           
         ,,##''                                '''############,,,,        ,,,,,,###''
      ,#''                                            '''#######################'''  
     '                                                          ''''####''''         
             ,#######,   #######,   ,#######,      ##                                
            ,#'     '#,  ##    ##  ,#'     '#,    #''#        ######   ,####,        
            ##       ##  ##   ,#'  ##            #'  '#       #        #'  '#        
            ##       ##  #######   ##           ,######,      #####,   #    #        
            '#,     ,#'  ##    ##  '#,     ,#' ,#      #,         ##   #,  ,#        
             '#######'   ##     ##  '#######'  #'      '#     #####' # '####'        



                  #######################################################
                  #                        -***-                        #
                  #          Department of theory and spectroscopy      #
                  #    Directorship and core code : Frank Neese         #
                  #        Max Planck Institute fuer Kohlenforschung    #
                  #                Kaiser Wilhelm Platz 1               #
                  #                 D-45470 Muelheim/Ruhr               #
                  #                      Germany                        #
                  #                                                     #
                  #                  All rights reserved                #
                  #                        -***-                        #
                  #######################################################


                         Program Version 5.0.3 -  RELEASE  -


 With contributions from (in alphabetic order):
   Daniel Aravena         : Magnetic Suceptibility
   Michael Atanasov       : Ab Initio Ligand Field Theory (pilot matlab implementation)
   Alexander A. Auer      : GIAO ZORA, VPT2 properties, NMR spectrum
   Ute Becker             : Parallelization
   Giovanni Bistoni       : ED, misc. LED, open-shell LED, HFLD
   Martin Brehm           : Molecular dynamics
   Dmytro Bykov           : SCF Hessian
   Vijay G. Chilkuri      : MRCI spin determinant printing, contributions to CSF-ICE
   Dipayan Datta          : RHF DLPNO-CCSD density
   Achintya Kumar Dutta   : EOM-CC, STEOM-CC
   Dmitry Ganyushin       : Spin-Orbit,Spin-Spin,Magnetic field MRCI
   Miquel Garcia          : C-PCM and meta-GGA Hessian, CC/C-PCM, Gaussian charge scheme
   Yang Guo               : DLPNO-NEVPT2, F12-NEVPT2, CIM, IAO-localization
   Andreas Hansen         : Spin unrestricted coupled pair/coupled cluster methods
   Benjamin Helmich-Paris : MC-RPA, TRAH-SCF, COSX integrals
   Lee Huntington         : MR-EOM, pCC
   Robert Izsak           : Overlap fitted RIJCOSX, COSX-SCS-MP3, EOM
   Marcus Kettner         : VPT2
   Christian Kollmar      : KDIIS, OOCD, Brueckner-CCSD(T), CCSD density, CASPT2, CASPT2-K
   Simone Kossmann        : Meta GGA functionals, TD-DFT gradient, OOMP2, MP2 Hessian
   Martin Krupicka        : Initial AUTO-CI
   Lucas Lang             : DCDCAS
   Marvin Lechner         : AUTO-CI (C++ implementation), FIC-MRCC
   Dagmar Lenk            : GEPOL surface, SMD
   Dimitrios Liakos       : Extrapolation schemes; Compound Job, initial MDCI parallelization
   Dimitrios Manganas     : Further ROCIS development; embedding schemes
   Dimitrios Pantazis     : SARC Basis sets
   Anastasios Papadopoulos: AUTO-CI, single reference methods and gradients
   Taras Petrenko         : DFT Hessian,TD-DFT gradient, ASA, ECA, R-Raman, ABS, FL, XAS/XES, NRVS
   Peter Pinski           : DLPNO-MP2, DLPNO-MP2 Gradient
   Christoph Reimann      : Effective Core Potentials
   Marius Retegan         : Local ZFS, SOC
   Christoph Riplinger    : Optimizer, TS searches, QM/MM, DLPNO-CCSD(T), (RO)-DLPNO pert. Triples
   Tobias Risthaus        : Range-separated hybrids, TD-DFT gradient, RPA, STAB
   Michael Roemelt        : Original ROCIS implementation
   Masaaki Saitow         : Open-shell DLPNO-CCSD energy and density
   Barbara Sandhoefer     : DKH picture change effects
   Avijit Sen             : IP-ROCIS
   Kantharuban Sivalingam : CASSCF convergence, NEVPT2, FIC-MRCI
   Bernardo de Souza      : ESD, SOC TD-DFT
   Georgi Stoychev        : AutoAux, RI-MP2 NMR, DLPNO-MP2 response
   Willem Van den Heuvel  : Paramagnetic NMR
   Boris Wezisla          : Elementary symmetry handling
   Frank Wennmohs         : Technical directorship


 We gratefully acknowledge several colleagues who have allowed us to
 interface, adapt or use parts of their codes:
   Stefan Grimme, W. Hujo, H. Kruse, P. Pracht,  : VdW corrections, initial TS optimization,
                  C. Bannwarth, S. Ehlert          DFT functionals, gCP, sTDA/sTD-DF
   Ed Valeev, F. Pavosevic, A. Kumar             : LibInt (2-el integral package), F12 methods
   Garnet Chan, S. Sharma, J. Yang, R. Olivares  : DMRG
   Ulf Ekstrom                                   : XCFun DFT Library
   Mihaly Kallay                                 : mrcc  (arbitrary order and MRCC methods)
   Jiri Pittner, Ondrej Demel                    : Mk-CCSD
   Frank Weinhold                                : gennbo (NPA and NBO analysis)
   Christopher J. Cramer and Donald G. Truhlar   : smd solvation model
   Lars Goerigk                                  : TD-DFT with DH, B97 family of functionals
   V. Asgeirsson, H. Jonsson                     : NEB implementation
   FAccTs GmbH                                   : IRC, NEB, NEB-TS, DLPNO-Multilevel, CI-OPT
                                                   MM, QMMM, 2- and 3-layer-ONIOM, Crystal-QMMM,
                                                   LR-CPCM, SF, NACMEs, symmetry and pop. for TD-DFT,
                                                   nearIR, NL-DFT gradient (VV10), updates on ESD,
                                                   ML-optimized integration grids
   S Lehtola, MJT Oliveira, MAL Marques          : LibXC Library
   Liviu Ungur et al                             : ANISO software


 Your calculation uses the libint2 library for the computation of 2-el integrals
 For citations please refer to: http://libint.valeyev.net

 Your ORCA version has been built with support for libXC version: 5.1.0
 For citations please refer to: https://tddft.org/programs/libxc/

 This ORCA versions uses:
   CBLAS   interface :  Fast vector & matrix operations
   LAPACKE interface :  Fast linear algebra routines
   SCALAPACK package :  Parallel linear algebra routines
   Shared memory     :  Shared parallel matrices
   BLAS/LAPACK       :  OpenBLAS 0.3.15  USE64BITINT DYNAMIC_ARCH NO_AFFINITY Haswell SINGLE_THREADED
        Core in use  :  Haswell
   Copyright (c) 2011-2014, The OpenBLAS Project




***************************************
The coordinates will be read from file: acetone.xyz
***************************************


Your calculation utilizes the atom-pairwise dispersion correction
with the Becke-Johnson damping scheme (D3BJ)
Cite in your paper:
S.Grimme, S.Ehrlich, L.Goerigk, J Comput Chem, (2011), 32, 1456–1465 
S.Grimme, J.Antony, S.Ehrlich and H.Krieg, J.Chem.Phys., 132, (2010), 154104 
   

Your calculation utilizes a Nudged-Elastic-Band implementation
 by V.Asgeirsson, C. Riplinger & H. Jonsson
Please cite in your paper:
 V. Asgeirsson et al., in prep. (2019)
   

================================================================================

----- Orbital basis set information -----
Your calculation utilizes the basis: def2-SVP
   F. Weigend and R. Ahlrichs, Phys. Chem. Chem. Phys. 7, 3297 (2005).

----- AuxJ basis set information -----
Your calculation utilizes the auxiliary basis: def2/J
   F. Weigend, Phys. Chem. Chem. Phys. 8, 1057 (2006).

================================================================================
                                        WARNINGS
                       Please study these warnings very carefully!
================================================================================


WARNING: Geometry Optimization
  ===> : Switching off AutoStart
         For restart on a previous wavefunction, please use MOREAD

INFO   : the flag for use of the SHARK integral package has been found!

================================================================================
                                       INPUT FILE
================================================================================
NAME = sn2.inp
|  1> !BLYP D3BJ def2-SVP NEB-TS Freq xyzfile
|  2> 
|  3> %Freq
|  4> Temp 298.15
|  5> end
|  6> 
|  7> %pal
|  8> nprocs 6
|  9> end
| 10> 
| 11> %NEB
| 12> NEB_END_XYZFILE "pr.xyz"
| 13> end
| 14> 
| 15> *xyzfile 0 1 acetone.xyz
| 16> 
| 17>                          ****END OF INPUT****
================================================================================


--------------------------------------------------------------------------------
                        Nudged Elastic Band Calculation
--------------------------------------------------------------------------------

Number of images (incl. end points)     ....  10
Number of intermediate images           ....  8
Number of optimized images              ....  8
Optimization of end points before NEB   ....  NO
Use existing gbw files for MO input     ....  NO
Number of atoms                         ....  10
Number of (active) degrees of freedom   ....  30
Constrained atoms                       ....  None

-----------------------------------------
  REACTANT (ANGSTROEM)
-----------------------------------------
O     -0.503138    -3.467056    -1.401178 
C      1.167260    -3.130601    -3.096932 
C     -0.158559    -2.851503    -2.397799 
C     -1.029744    -1.760302    -3.009953 
H      1.829721    -2.258562    -2.991955 
H      1.649280    -4.006580    -2.653818 
H      1.017046    -3.286166    -4.174366 
H     -1.371326    -2.074790    -4.007180 
H     -0.453851    -0.834739    -3.150185 
H     -1.897279    -1.569641    -2.372005 

-----------------------------------------
  PRODUCT (ANGSTROEM)
-----------------------------------------
O     -0.402437    -1.209734     0.189092 
C      1.429055     0.288734     0.009961 
C     -0.062681     0.123450     0.032867 
C     -0.960919     1.114526    -0.080758 
H      1.702847     1.340837    -0.112930 
H      1.869613    -0.088187     0.943467 
H      1.865033    -0.292828    -0.814218 
H     -2.033722     0.926126    -0.056480 
H     -0.635918     2.142783    -0.202242 
H     -1.374791    -1.286297     0.198921 



----------------------
NEB settings
----------------------
Method type                             ....  climbing image
Threshold for climbing image            ....  2.00e-02 Eh/Bohr 
Free endpoints                          ....  off 
Tangent type                            ....  improved 
Number of intermediate images           ....  8 
Number of images free to move           ....  8 
Spring type for image distribution      ....  distance between adjacent images 
Spring constant                         ....  energy weighted (0.0100 -to- 0.1000) Eh/Bohr^2 
Spring force perp. to the path          ....  none 
Generation of initial path              ....  image dependent pair potential 
Initial path via TS guess               ....  off 

Minimization of RMSD: Rotation          ....  always 
Minimization of RMSD: Translation type  ....  centroid 
Center fixed to origin                  ....  true 
Remove external force                   ....  true 

Reparametrization of the path           ....  off 
Convergence thresholds:
Convergence monitored for               ....  all images
Scaling factor                          ....  10.00

Convergence parameters for regular images:
               Max(|Fp|)                ....  2.00e-02 Eh/Bohr
               RMS(Fp)                  ....  1.00e-02 Eh/Bohr

Convergence parameters for climbing image:
               Max(|F|)                 ....  2.00e-03 Eh/Bohr
               RMS(F)                   ....  1.00e-03 Eh/Bohr
Optimization method:
Method                                  ....  L-BFGS
Max. iterations                         ....  500 
Step size                               ....  1.00 
Maximum allowed step size               ....  0.10 Bohr

LBFGS parameters: 
               Memory                   ....  20 
               Initial step size        ....  0.0010 
               Estimate curvature       ....  YES 
               Reset on maxmove         ....  YES 
               Reparam. on reset        ....  NO 
Generation of  the initial path:
Minimize RMSD between reactant and product configurations     .... done
       RMSD before minimization         ....  4.6397 Bohr
       RMSD after minimization          ....  1.0145 Bohr
Performing linear interpolation         ....  done
Interpolation using                     ....  IDPP (Image Dependent Pair Potential)
IDPP-Settings:
       Remove global transl. and rot.   ...   true
       Convergence tolerance            ....  0.0100 1/Ang.^3
       Max. numer of iterations         ....    7000
       Spring constant                  ....  1.0000 1/Ang.^4
       Time step                        ....  0.0100 fs
       Max. movement per iteration      ....  0.0500 Ang.
       Full print                       ....  false 
idpp initial path generation successfully converged in 81 iterations
Displacement along initial path:              5.8439 Bohr
Writing initial trajectory to file      ....  sn2_initial_path_trj.xyz



----------------------
NEB OPTIMIZATION      
----------------------

Following output files will be written:
Energy profile during opt. written to    ....  sn2.interp
Optimization log-file                    ....  sn2.NEB.log
Current trajectory will be written to    ....  sn2_MEP_trj.xyz
       and to allxyz file                ....  sn2_MEP.allxyz
       and individual images to xyz file ....  sn2_im{NIm}.xyz
Trajectory history will be written to    ....  sn2_MEP_ALL_trj.xyz
Converged CI will be written to          ....  sn2_NEB-CI_converged.xyz
Converged TS will be written to          ....  sn2_NEB-TS_converged.xyz

Single point energy and gradient calculation of reactant and
product configurations (have to be performed only once)
Properties of fixed NEB end points:
               Reactant:
                         E               ....   -192.940334 Eh
                         RMS(F)          ....      0.003385 Eh/Bohr
                         MAX(|F|)        ....      0.006847 Eh/Bohr
               Product:
                         E               ....   -192.919419 Eh
                         RMS(F)          ....      0.004287 Eh/Bohr
                         MAX(|F|)        ....      0.012170 Eh/Bohr



Starting iterations:

Optim.  Iteration  HEI  E(HEI)-E(0)  max(|Fp|)   RMS(Fp)    dS
Switch-on CI threshold               0.020000 
   LBFGS     0      5    0.137809    0.083618   0.018032  5.8439       
   LBFGS     1      5    0.131198    0.067804   0.013641  5.8589       
   LBFGS     2      5    0.125831    0.053863   0.011759  5.9266       
   LBFGS     3      5    0.117959    0.053586   0.011568  5.9999       
   LBFGS     4      4    0.111893    0.051522   0.010949  6.1333       
   LBFGS     5      4    0.108016    0.049031   0.010226  6.1670       
   LBFGS     6      4    0.105426    0.031479   0.007045  6.2055       
   LBFGS     7      4    0.101584    0.026134   0.005772  6.3385       
   LBFGS     8      4    0.099757    0.042369   0.007788  6.4601       
   LBFGS     9      4    0.098381    0.024709   0.005762  6.5457       
   LBFGS    10      4    0.097174    0.016700   0.004031  6.7154       

Image  4 will be converted to a climbing image in the next iteration (max(|Fp|) < 0.0200) 

Optim.  Iteration  CI   E(CI)-E(0)   max(|Fp|)   RMS(Fp)    dS     max(|FCI|)   RMS(FCI)
Convergence thresholds               0.020000   0.010000            0.002000    0.001000 
   LBFGS    11      4    0.096888    0.010758   0.002465  6.7237    0.033406    0.008277       
   LBFGS    12      4    0.099311    0.028952   0.006328  6.7854    0.025867    0.008164       
   LBFGS    13      4    0.099220    0.020687   0.004747  6.8214    0.023323    0.007088       
   LBFGS    14      4    0.099378    0.008410   0.002188  6.9946    0.011412    0.003296       
   LBFGS    15      4    0.099791    0.014171   0.003221  6.9793    0.007330    0.002753       
   LBFGS    16      4    0.099704    0.009039   0.002339  6.9752    0.005465    0.002156       
   LBFGS    17      4    0.098292    0.011952   0.003082  7.0374    0.017774    0.004834       
   LBFGS    18      4    0.097474    0.019572   0.004216  7.1572    0.022243    0.005924       
   LBFGS    19      4    0.098282    0.019676   0.003442  7.1429    0.014987    0.004119       
   LBFGS    20      4    0.098738    0.010422   0.002403  7.1355    0.010435    0.003087       
   LBFGS    21      4    0.098942    0.011235   0.002012  7.1509    0.007842    0.002006       
   LBFGS    22      4    0.098705    0.011039   0.002307  7.1630    0.010673    0.002644       
   LBFGS    23      4    0.098713    0.011774   0.002502  7.1833    0.010482    0.002600       
   LBFGS    24      4    0.099016    0.019282   0.002995  7.2473    0.004891    0.002036       
   LBFGS    25      4    0.098999    0.009894   0.001578  7.2495    0.004007    0.001134       
   LBFGS    26      4    0.099014    0.008255   0.001277  7.2525    0.003328    0.001015       
   LBFGS    27      4    0.098993    0.008828   0.001599  7.2930    0.002675    0.001065       
   LBFGS    28      4    0.098966    0.011263   0.001891  7.3103    0.002012    0.000758       
   LBFGS    29      4    0.098978    0.005035   0.000992  7.3010    0.001345    0.000596       

                                .--------------------.
          ----------------------| CI-NEB convergence |-------------------------
          Item                value                   Tolerance       Converged
          ---------------------------------------------------------------------
          RMS(Fp)             0.0009920688            0.0100000000      YES
          MAX(|Fp|)           0.0050354607            0.0200000000      YES
          RMS(FCI)            0.0005961901            0.0010000000      YES
          MAX(|FCI|)          0.0013450780            0.0020000000      YES
          ---------------------------------------------------------------------

The elastic band and climbing image have converged successfully to a MEP in 29 iterations!


                    *********************H U R R A Y*********************
                    ***        THE NEB OPTIMIZATION HAS CONVERGED     ***
                    *****************************************************



---------------------------------------------------------------
                         PATH SUMMARY              
---------------------------------------------------------------
All forces in Eh/Bohr.

Image Dist.(Ang.)    E(Eh)   dE(kcal/mol)  max(|Fp|)  RMS(Fp)
  0     0.000    -192.94033      0.00       0.00643   0.00336
  1     1.205    -192.92594      9.03       0.00443   0.00152
  2     1.551    -192.88812     32.76       0.00504   0.00192
  3     1.773    -192.85416     54.07       0.00240   0.00102
  4     1.959    -192.84136     62.11       0.00099   0.00047 <= CI
  5     2.132    -192.85398     54.19       0.00237   0.00096
  6     2.315    -192.87485     41.09       0.00139   0.00061
  7     2.594    -192.89549     28.14       0.00172   0.00061
  8     3.021    -192.91270     17.34       0.00079   0.00040
  9     3.864    -192.91942     13.12       0.01217   0.00428

Straight line distance between images along the path:
        D( 0- 1) =   1.2048 Ang.
        D( 1- 2) =   0.3460 Ang.
        D( 2- 3) =   0.2222 Ang.
        D( 3- 4) =   0.1859 Ang.
        D( 4- 5) =   0.1731 Ang.
        D( 5- 6) =   0.1832 Ang.
        D( 6- 7) =   0.2790 Ang.
        D( 7- 8) =   0.4266 Ang.
        D( 8- 9) =   0.8427 Ang.

---------------------------------------------------------------
               INFORMATION ABOUT SADDLE POINT     
---------------------------------------------------------------

Climbing image                            ....  4 
Energy                                    ....  -192.84135568 Eh
Max. abs. force                           ....  1.3451e-03 Eh/Bohr

-----------------------------------------
  SADDLE POINT (ANGSTROEM)
-----------------------------------------
O     -0.940944    -0.925616     1.012014 
C      1.201888    -0.598531    -0.112704 
C     -0.199457    -0.187806     0.241559 
C     -0.916688     0.989165    -0.145097 
H      1.805558     0.287515    -0.385088 
H      1.694147    -1.166617     0.699245 
H      1.153613    -1.250695    -1.012045 
H     -1.781916     0.761995    -0.798327 
H     -0.386734     1.909320    -0.442322 
H     -1.629468     0.181271     0.942766 

-----------------------------------------
  FORCES (Eh/Bohr)
-----------------------------------------
O     -0.000965    -0.000423     0.000455 
C     -0.000470    -0.000282     0.000190 
C      0.001018     0.001345    -0.001131 
C      0.000268     0.000149    -0.000700 
H      0.000350    -0.000302     0.000253 
H     -0.000317    -0.000165     0.000057 
H      0.000371    -0.000066     0.000091 
H     -0.000452    -0.000291     0.000773 
H     -0.000245     0.001068    -0.000434 
H      0.000442    -0.001034     0.000446 

-----------------------------------------
  UNIT TANGENT
-----------------------------------------
O     -0.294343     0.270491     0.006101 
C     -0.022491     0.008343     0.037408 
C      0.033852     0.239365    -0.072851 
C      0.227064     0.087918    -0.240216 
H     -0.002891    -0.007311     0.009221 
H      0.002090    -0.002791     0.013508 
H     -0.014602     0.014922     0.016255 
H     -0.067954     0.049638     0.155289 
H      0.114320     0.060974    -0.167700 
H      0.024953    -0.721549     0.242984 
 => Unit tangent is an approximation to the TS mode at the saddle point

Next a TS optimization is performed on the CI from the NEB run.

         *************************************************************
         *                       TS OPTIMIZATION                     *
         *************************************************************


Following output files will be written:
Converged TS will be written to          ....  sn2_NEB-TS_converged.xyz
                                         ....  sn2.xyz
Current trajectory will be written to    ....  sn2_trj.xyz
Initial Hessian will be stored in        ....  sn2.appr.hess
Geometry optimization settings:
Update method            Update   .... Bofill
Choice of coordinates    CoordSys .... Z-matrix Internals
Initial Hessian          InHess   .... Read

Convergence Tolerances:
Energy Change            TolE     ....  5.0000e-06 Eh
Max. Gradient            TolMAXG  ....  3.0000e-04 Eh/bohr
RMS Gradient             TolRMSG  ....  1.0000e-04 Eh/bohr
Max. Displacement        TolMAXD  ....  4.0000e-03 bohr
RMS Displacement         TolRMSD  ....  2.0000e-03 bohr
Strict Convergence                ....  False
------------------------------------------------------------------------------
                        ORCA OPTIMIZATION COORDINATE SETUP
------------------------------------------------------------------------------

The optimization will be done in new redundant internal coordinates
Making redundant internal coordinates   ...  (new redundants) done
Following TS mode number                ...     0
TS-active-atoms for coordinate setup... 0 3 9 
Evaluating the initial hessian          ... (Reading Exact Hessian)...  
InHessName: sn2.appr.hess	The file <sn2.appr.hess> is opened as a .hess file
done
done
Diagonalizing the Hessian               .... done
Dimension of the hessian                .... 38
Lowest eigenvalues of the non projected Hessian:
 -0.105300917 -0.000000000 -0.000000000 -0.000000000 -0.000000000
done
Evaluating the coordinates              ...  done
Calculating the B-matrix                .... done
Calculating the G-matrix                .... done
Diagonalizing the G-matrix              .... done
The first mode is                       ....   14
The number of degrees of freedom        ....   24

    -----------------------------------------------------------------
                    Redundant Internal Coordinates


    -----------------------------------------------------------------
         Definition                    Initial Value    d2E/dq (diagonal element)
    -----------------------------------------------------------------
      1. B(C   1,O   0)                  2.4421         0.100102   
      2. B(C   2,O   0)                  1.2991         0.317001   
      3. B(C   2,C   1)                  1.5027         0.299034   
      4. B(C   3,C   2)                  1.4315         0.360381   
      5. B(C   3,O   0)                  2.2374         0.100032   
      6. B(H   4,C   1)                  1.1062         0.339328   
      7. B(H   5,C   1)                  1.1065         0.338958   
      8. B(H   6,C   1)                  1.1120         0.332390   
      9. B(H   7,C   3)                  1.1077         0.337744   
     10. B(H   8,C   3)                  1.1027         0.354791   
     11. B(H   9,C   3)                  1.5311         0.007850   
     12. B(H   9,C   2)                  1.6349         0.048244   
     13. B(H   9,O   0)                  1.3054        -0.009368   
     14. A(C   2,O   0,H   9)           77.7616         0.038662   
     15. A(H   5,C   1,H   6)          108.1613         0.122685   
     16. A(H   4,C   1,H   6)          107.1165         0.116680   
     17. A(C   2,C   1,H   5)          112.4715         0.229020   
     18. A(H   4,C   1,H   5)          110.4349         0.131726   
     19. A(C   2,C   1,H   6)          108.0894         0.228480   
     20. A(C   2,C   1,H   4)          110.3674         0.228369   
     21. A(C   1,C   2,C   3)          128.9255         0.190929   
     22. A(O   0,C   2,C   3)          109.9477         0.071799   
     23. A(O   0,C   2,C   1)          121.1216         0.131819   
     24. A(H   7,C   3,H   8)          112.8049         0.167138   
     25. A(C   2,C   3,H   8)          121.2055         0.254613   
     26. A(C   2,C   3,H   7)          112.4600         0.244480   
     27. D(C   1,C   2,O   0,H   9)    168.8088         0.023832   
     28. D(O   0,C   2,C   1,H   6)     87.2743         0.029404   
     29. D(C   3,C   2,O   0,H   9)    -10.4367         0.024382   
     30. D(C   3,C   2,C   1,H   4)     23.2047         0.029309   
     31. D(O   0,C   2,C   1,H   4)   -155.8836         0.029219   
     32. D(C   3,C   2,C   1,H   5)    147.0250         0.029252   
     33. D(C   3,C   2,C   1,H   6)    -93.6374         0.029206   
     34. D(O   0,C   2,C   1,H   5)    -32.0633         0.029163   
     35. D(H   8,C   3,C   2,C   1)    -23.7182         0.021965   
     36. D(H   8,C   3,C   2,O   0)    155.4515         0.022469   
     37. D(H   7,C   3,C   2,C   1)    114.0790         0.016477   
     38. D(H   7,C   3,C   2,O   0)    -66.7512         0.016450   
    -----------------------------------------------------------------

Number of atoms                         .... 10
Number of degrees of freedom            .... 38

         *************************************************************
         *                GEOMETRY OPTIMIZATION CYCLE   1            *
         *************************************************************


           ************************************************************
           *        Program running with 6 parallel MPI-processes     *
           *              working on a common directory               *
           ************************************************************
------------------------------------------------------------------------------
                           ORCA GTO INTEGRAL CALCULATION
                           -- RI-GTO INTEGRALS CHOSEN --
------------------------------------------------------------------------------
------------------------------------------------------------------------------
                   ___                                                        
                  /   \      - P O W E R E D   B Y -                         
                 /     \                                                     
                 |  |  |   _    _      __       _____    __    __             
                 |  |  |  | |  | |    /  \     |  _  \  |  |  /  |          
                  \  \/   | |  | |   /    \    | | | |  |  | /  /          
                 / \  \   | |__| |  /  /\  \   | |_| |  |  |/  /          
                |  |  |   |  __  | /  /__\  \  |    /   |      \           
                |  |  |   | |  | | |   __   |  |    \   |  |\   \          
                \     /   | |  | | |  |  |  |  | |\  \  |  | \   \       
                 \___/    |_|  |_| |__|  |__|  |_| \__\ |__|  \__/        
                                                                              
                      - O R C A' S   B I G   F R I E N D -                    
                                      &                                       
                       - I N T E G R A L  F E E D E R -                       
                                                                              
 v1 FN, 2020, v2 2021                                                         
------------------------------------------------------------------------------


Reading SHARK input file sn2.SHARKINP.tmp ... ok
----------------------
SHARK INTEGRAL PACKAGE
----------------------

Number of atoms                             ...     10
Number of basis functions                   ...     86
Number of shells                            ...     42
Maximum angular momentum                    ...      2
Integral batch strategy                     ... SHARK/LIBINT Hybrid
RI-J (if used) integral strategy            ... SPLIT-RIJ (Revised 2003 algorithm where possible)
Printlevel                                  ...      1
Contraction scheme used                     ... SEGMENTED contraction
Coulomb Range Separation                    ... NOT USED
Exchange Range Separation                   ... NOT USED
Finite Nucleus Model                        ... NOT USED
Auxiliary Coulomb fitting basis             ... AVAILABLE
   # of basis functions in Aux-J            ...    262
   # of shells in Aux-J                     ...     90
   Maximum angular momentum in Aux-J        ...      4
Auxiliary J/K fitting basis                 ... NOT available
Auxiliary Correlation fitting basis         ... NOT available
Auxiliary 'external' fitting basis          ... NOT available
Integral threshold                          ...     2.500000e-11
Primitive cut-off                           ...     2.500000e-12
Primitive pair pre-selection threshold      ...     2.500000e-12

Calculating pre-screening integrals         ... done (  0.1 sec) Dimension = 42
Organizing shell pair data                  ... done (  0.3 sec)
Shell pair information
Total number of shell pairs                 ...       903
Shell pairs after pre-screening             ...       898
Total number of primitive shell pairs       ...      3151
Primitive shell pairs kept                  ...      2600
          la=0 lb=0:    297 shell pairs
          la=1 lb=0:    334 shell pairs
          la=1 lb=1:    105 shell pairs
          la=2 lb=0:     96 shell pairs
          la=2 lb=1:     56 shell pairs
          la=2 lb=2:     10 shell pairs

Calculating one electron integrals          ... done (  0.2 sec)
Calculating RI/J V-Matrix + Cholesky decomp.... done (  0.7 sec)
Calculating Nuclear repulsion               ... done (  0.0 sec) ENN=    119.743101915211 Eh

SHARK setup successfully completed in   1.8 seconds

Maximum memory used throughout the entire GTOINT-calculation: 9.6 MB


           ************************************************************
           *        Program running with 6 parallel MPI-processes     *
           *              working on a common directory               *
           ************************************************************
-------------------------------------------------------------------------------
                                 ORCA SCF
-------------------------------------------------------------------------------

------------
SCF SETTINGS
------------
Hamiltonian:
 Density Functional     Method          .... DFT(GTOs)
 Exchange Functional    Exchange        .... B88
   X-Alpha parameter    XAlpha          ....  0.666667
   Becke's b parameter  XBeta           ....  0.004200
 Correlation Functional Correlation     .... LYP
 Gradients option       PostSCFGGA      .... off
   Density functional embedding theory  .... OFF
   NL short-range parameter             ....  4.000000
 RI-approximation to the Coulomb term is turned on
   Number of AuxJ basis functions       .... 262


General Settings:
 Integral files         IntName         .... sn2
 Hartree-Fock type      HFTyp           .... RHF
 Total Charge           Charge          ....    0
 Multiplicity           Mult            ....    1
 Number of Electrons    NEL             ....   32
 Basis Dimension        Dim             ....   86
 Nuclear Repulsion      ENuc            ....    119.7431019152 Eh

Convergence Acceleration:
 DIIS                   CNVDIIS         .... on
   Start iteration      DIISMaxIt       ....    12
   Startup error        DIISStart       ....  0.200000
   # of expansion vecs  DIISMaxEq       ....     5
   Bias factor          DIISBfac        ....   1.050
   Max. coefficient     DIISMaxC        ....  10.000
 Trust-Rad. Augm. Hess. CNVTRAH         .... auto
   Auto Start mean grad. ratio tolernc. ....  1.125000
   Auto Start start iteration           ....     1
   Auto Start num. interpolation iter.  ....    10
   Max. Number of Micro iterations      ....    16
   Max. Number of Macro iterations      .... Maxiter - #DIIS iter
   Number of Davidson start vectors     ....     2
   Converg. threshold I  (grad. norm)   ....   1.000e-05
   Converg. threshold II (energy diff.) ....   1.000e-08
   Grad. Scal. Fac. for Micro threshold ....   0.100
   Minimum threshold for Micro iter.    ....   0.010
   NR start threshold (gradient norm)   ....   0.001
   Initial trust radius                 ....   0.400
   Minimum AH scaling param. (alpha)    ....   1.000
   Maximum AH scaling param. (alpha)    .... 1000.000
   Orbital update algorithm             .... Taylor
   White noise on init. David. guess    .... on
   Maximum white noise                  ....   0.010
   Quad. conv. algorithm                .... NR
 SOSCF                  CNVSOSCF        .... on
   Start iteration      SOSCFMaxIt      ....   150
   Startup grad/error   SOSCFStart      ....  0.003300
 Level Shifting         CNVShift        .... on
   Level shift para.    LevelShift      ....    0.2500
   Turn off err/grad.   ShiftErr        ....    0.0010
 Zerner damping         CNVZerner       .... off
 Static damping         CNVDamp         .... on
   Fraction old density DampFac         ....    0.7000
   Max. Damping (<1)    DampMax         ....    0.9800
   Min. Damping (>=0)   DampMin         ....    0.0000
   Turn off err/grad.   DampErr         ....    0.1000
 Fernandez-Rico         CNVRico         .... off

SCF Procedure:
 Maximum # iterations   MaxIter         ....   125
 SCF integral mode      SCFMode         .... Direct
   Integral package                     .... SHARK and LIBINT hybrid scheme
 Reset frequency        DirectResetFreq ....    20
 Integral Threshold     Thresh          ....  2.500e-11 Eh
 Primitive CutOff       TCut            ....  2.500e-12 Eh

Convergence Tolerance:
 Convergence Check Mode ConvCheckMode   .... Total+1el-Energy
 Convergence forced     ConvForced      .... 0
 Energy Change          TolE            ....  1.000e-08 Eh
 1-El. energy change                    ....  1.000e-05 Eh
 Orbital Gradient       TolG            ....  1.000e-05
 Orbital Rotation angle TolX            ....  1.000e-05
 DIIS Error             TolErr          ....  5.000e-07


Diagonalization of the overlap matrix:
Smallest eigenvalue                        ... 2.992e-03
Time for diagonalization                   ...    0.001 sec
Threshold for overlap eigenvalues          ... 1.000e-08
Number of eigenvalues below threshold      ... 0
Time for construction of square roots      ...    0.001 sec
Total time needed                          ...    0.002 sec

---------------------
INITIAL GUESS: MOREAD
---------------------
Guess MOs are being read from file: sn2.gbw
Input Geometry matches current geometry (good)
Input basis set matches current basis set (good)
MOs were renormalized
MOs were reorthogonalized (Cholesky)
                      ------------------
                      INITIAL GUESS DONE (   0.0 sec)
                      ------------------
-------------------
DFT GRID GENERATION
-------------------

General Integration Accuracy     IntAcc      ... 4.388
Radial Grid Type                 RadialGrid  ... OptM3 with GC (2021)
Angular Grid (max. ang.)         AngularGrid ... 4 (Lebedev-302)
Angular grid pruning method      GridPruning ... 4 (adaptive)
Weight generation scheme         WeightScheme... Becke
Basis function cutoff            BFCut       ... 1.0000e-11
Integration weight cutoff        WCut        ... 1.0000e-14
Angular grids for H and He will be reduced by one unit
Partially contracted basis set               ... off
Rotationally invariant grid construction     ... off

Total number of grid points                  ...    43780
Total number of batches                      ...      689
Average number of points per batch           ...       63
Average number of grid points per atom       ...     4378
Time for grid setup =    0.558 sec

--------------
SCF ITERATIONS
--------------
ITER       Energy         Delta-E        Max-DP      RMS-DP      [F,P]     Damp
               ***  Starting incremental Fock matrix formation  ***
                      *** Initiating the SOSCF procedure ***
                      *** Re-Reading the Fockian *** 
                      *** Removing any level shift *** 
ITER      Energy       Delta-E        Grad      Rot      Max-DP    RMS-DP
  0   -192.82885593 -192.8288559288  0.000000  0.000000  0.000001  0.000000
               *** Restarting incremental Fock matrix formation ***
                 **** Energy Check signals convergence ****
              ***Rediagonalizing the Fockian in SOSCF/NRSCF***

               *****************************************************
               *                     SUCCESS                       *
               *           SCF CONVERGED AFTER   1 CYCLES          *
               *****************************************************


----------------
TOTAL SCF ENERGY
----------------

Total Energy       :         -192.82885593 Eh           -5247.13993 eV

Components:
Nuclear Repulsion  :          119.74310192 Eh            3258.37546 eV
Electronic Energy  :         -312.57195784 Eh           -8505.51538 eV
One Electron Energy:         -497.69197320 Eh          -13542.88710 eV
Two Electron Energy:          185.12001535 Eh            5037.37171 eV

Virial components:
Potential Energy   :         -383.73463863 Eh          -10441.95038 eV
Kinetic Energy     :          190.90578270 Eh            5194.81045 eV
Virial Ratio       :            2.01007342


DFT components:
N(Alpha)           :       16.000001374426 electrons
N(Beta)            :       16.000001374426 electrons
N(Total)           :       32.000002748851 electrons
E(X)               :      -25.824049802210 Eh       
E(C)               :       -1.059292494869 Eh       
E(XC)              :      -26.883342297079 Eh       
DFET-embed. en.    :        0.000000000000 Eh       

---------------
SCF CONVERGENCE
---------------

  Last Energy change         ...   -1.4495e-12  Tolerance :   1.0000e-08
  Last MAX-Density change    ...    4.0783e-07  Tolerance :   1.0000e-07
  Last RMS-Density change    ...    2.7456e-08  Tolerance :   5.0000e-09
  Last Orbital Gradient      ...    8.0811e-08  Tolerance :   1.0000e-05
  Last Orbital Rotation      ...    2.8521e-07  Tolerance :   1.0000e-05

             **** THE GBW FILE WAS UPDATED (sn2.gbw) ****
             **** DENSITY sn2.scfp WAS UPDATED ****
             **** ENERGY FILE WAS UPDATED (sn2.en.tmp) ****
             **** THE GBW FILE WAS UPDATED (sn2.gbw) ****
             **** DENSITY sn2.scfp WAS UPDATED ****
----------------
ORBITAL ENERGIES
----------------

  NO   OCC          E(Eh)            E(eV) 
   0   2.0000     -18.794270      -511.4181 
   1   2.0000     -10.014346      -272.5042 
   2   2.0000      -9.946951      -270.6703 
   3   2.0000      -9.901717      -269.4394 
   4   2.0000      -0.943081       -25.6625 
   5   2.0000      -0.679381       -18.4869 
   6   2.0000      -0.623521       -16.9669 
   7   2.0000      -0.473396       -12.8818 
   8   2.0000      -0.429849       -11.6968 
   9   2.0000      -0.406563       -11.0631 
  10   2.0000      -0.394170       -10.7259 
  11   2.0000      -0.350144        -9.5279 
  12   2.0000      -0.346183        -9.4201 
  13   2.0000      -0.311918        -8.4877 
  14   2.0000      -0.269520        -7.3340 
  15   2.0000      -0.178231        -4.8499 
  16   0.0000      -0.068748        -1.8707 
  17   0.0000       0.027259         0.7418 
  18   0.0000       0.062985         1.7139 
  19   0.0000       0.083938         2.2841 
  20   0.0000       0.092796         2.5251 
  21   0.0000       0.101576         2.7640 
  22   0.0000       0.120219         3.2713 
  23   0.0000       0.179747         4.8912 
  24   0.0000       0.228613         6.2209 
  25   0.0000       0.281374         7.6566 
  26   0.0000       0.350245         9.5306 
  27   0.0000       0.381964        10.3938 
  28   0.0000       0.400836        10.9073 
  29   0.0000       0.438162        11.9230 
  30   0.0000       0.480875        13.0853 
  31   0.0000       0.500104        13.6085 
  32   0.0000       0.507417        13.8075 
  33   0.0000       0.533503        14.5173 
  34   0.0000       0.574379        15.6296 
  35   0.0000       0.588564        16.0156 
  36   0.0000       0.595245        16.1975 
  37   0.0000       0.596973        16.2445 
  38   0.0000       0.625947        17.0329 
  39   0.0000       0.636024        17.3071 
  40   0.0000       0.679939        18.5021 
  41   0.0000       0.712227        19.3807 
  42   0.0000       0.748976        20.3807 
  43   0.0000       0.879514        23.9328 
  44   0.0000       0.917132        24.9564 
  45   0.0000       0.952424        25.9168 
  46   0.0000       1.067517        29.0486 
  47   0.0000       1.134529        30.8721 
  48   0.0000       1.260321        34.2951 
  49   0.0000       1.279123        34.8067 
  50   0.0000       1.350737        36.7554 
  51   0.0000       1.442460        39.2513 
  52   0.0000       1.449976        39.4559 
  53   0.0000       1.455385        39.6030 
  54   0.0000       1.513107        41.1737 
  55   0.0000       1.561024        42.4776 
  56   0.0000       1.588177        43.2165 
  57   0.0000       1.645260        44.7698 
  58   0.0000       1.657578        45.1050 
  59   0.0000       1.686212        45.8842 
  60   0.0000       1.700470        46.2721 
  61   0.0000       1.720537        46.8182 
  62   0.0000       1.768742        48.1299 
  63   0.0000       1.791776        48.7567 
  64   0.0000       1.858166        50.5633 
  65   0.0000       1.932277        52.5799 
  66   0.0000       1.961084        53.3638 
  67   0.0000       2.041010        55.5387 
  68   0.0000       2.082746        56.6744 
  69   0.0000       2.194555        59.7169 
  70   0.0000       2.266007        61.6612 
  71   0.0000       2.321922        63.1827 
  72   0.0000       2.371962        64.5444 
  73   0.0000       2.391860        65.0858 
  74   0.0000       2.477304        67.4109 
  75   0.0000       2.582740        70.2799 
  76   0.0000       2.634569        71.6903 
  77   0.0000       2.689769        73.1923 
  78   0.0000       2.722719        74.0890 
  79   0.0000       2.780774        75.6687 
  80   0.0000       2.812566        76.5338 
  81   0.0000       2.924441        79.5781 
  82   0.0000       2.965315        80.6903 
  83   0.0000       3.082556        83.8806 
  84   0.0000       3.304789        89.9279 
  85   0.0000       3.445617        93.7600 
-------
TIMINGS
-------

Total SCF time: 0 days 0 hours 0 min 5 sec 

Total time                  ....       5.091 sec
Sum of individual times     ....       4.338 sec  ( 85.2%)

Fock matrix formation       ....       1.256 sec  ( 24.7%)
  Split-RI-J                ....       0.686 sec  ( 54.6% of F)
  XC integration            ....       0.316 sec  ( 25.2% of F)
    Basis function eval.    ....       0.062 sec  ( 19.6% of XC)
    Density eval.           ....       0.035 sec  ( 11.1% of XC)
    XC-Functional eval.     ....       0.006 sec  (  2.0% of XC)
    XC-Potential eval.      ....       0.024 sec  (  7.6% of XC)
Diagonalization             ....       1.240 sec  ( 24.4%)
Density matrix formation    ....       0.028 sec  (  0.6%)
Population analysis         ....       0.000 sec  (  0.0%)
Initial guess               ....       0.018 sec  (  0.4%)
Orbital Transformation      ....       0.000 sec  (  0.0%)
Orbital Orthonormalization  ....       0.001 sec  (  0.0%)
DIIS solution               ....       0.233 sec  (  4.6%)
SOSCF solution              ....       1.005 sec  ( 19.7%)
Grid generation             ....       0.558 sec  ( 11.0%)

Maximum memory used throughout the entire SCF-calculation: 13.0 MB


-------------------------------------------------------------------------------
                          DFT DISPERSION CORRECTION                            
                                                                               
                              DFTD3 V3.1  Rev 1                                
                          USING Becke-Johnson damping                          
-------------------------------------------------------------------------------
The BLYP functional is recognized
Active option DFTDOPT                   ...         4   

molecular C6(AA) [au] = 794.671476 


            DFT-D V3
 parameters
 s6 scaling factor         :     1.0000 
 a1 scaling factor         :     0.4298 
 s8 scaling factor         :     2.6996 
 a2 scaling factor         :     4.2359 
 ad hoc parameters k1-k3   :    16.0000     1.3333    -4.0000 

 Edisp/kcal,au: -7.843714908909  -0.012499754022 
 E6   /kcal   :  -3.233019182 
 E8   /kcal   :  -4.610695727 
 % E8         :  58.782041169 

-------------------------   ----------------
Dispersion correction           -0.012499754
-------------------------   ----------------


-------------------------   --------------------
FINAL SINGLE POINT ENERGY      -192.841355682873
-------------------------   --------------------



           ************************************************************
           *        Program running with 6 parallel MPI-processes     *
           *              working on a common directory               *
           ************************************************************
------------------------------------------------------------------------------
                         ORCA SCF GRADIENT CALCULATION
------------------------------------------------------------------------------

Gradient of the Kohn-Sham DFT energy:
Kohn-Sham wavefunction type      ... RKS
Hartree-Fock exchange scaling    ...    0.000
Number of operators              ...    1
Number of atoms                  ...   10
Basis set dimensions             ...   86
Integral neglect threshold       ... 2.5e-11
Integral primitive cutoff        ... 2.5e-12
SHARK Integral package           ... ON

Nuc. rep. gradient       (SHARK) ... done (  0.0 sec)
HCore & Overlap gradient (SHARK) ... done (  0.3 sec)
RI-J gradient            (SHARK) ... done (  0.3 sec)
Exchange-correlation gradient    ... done
Dispersion correction            ... done

------------------
CARTESIAN GRADIENT
------------------

   1   O   :    0.000965600    0.000423074   -0.000455072
   2   C   :    0.000469928    0.000281777   -0.000189887
   3   C   :   -0.001018147   -0.001345275    0.001131351
   4   C   :   -0.000268068   -0.000148980    0.000699817
   5   H   :   -0.000349709    0.000302315   -0.000253194
   6   H   :    0.000317117    0.000164634   -0.000056574
   7   H   :   -0.000371481    0.000065588   -0.000090909
   8   H   :    0.000451704    0.000291176   -0.000772952
   9   H   :    0.000245330   -0.001068389    0.000433544
  10   H   :   -0.000442273    0.001034081   -0.000446123

Difference to translation invariance:
           :    0.0000000000    0.0000000000    0.0000000000

Difference to rotation invariance:
           :    0.0000738268   -0.0000908308   -0.0000422021

Norm of the cartesian gradient     ...    0.0032655713
RMS gradient                       ...    0.0005962090
MAX gradient                       ...    0.0013452748

-------
TIMINGS
-------

Total SCF gradient time            ...        1.787 sec

One electron gradient       ....       0.287 sec  ( 16.0%)
RI-J Coulomb gradient       ....       0.318 sec  ( 17.8%)
XC gradient                 ....       0.344 sec  ( 19.2%)

Maximum memory used throughout the entire SCFGRAD-calculation: 26.2 MB
------------------------------------------------------------------------------
                         ORCA GEOMETRY RELAXATION STEP
------------------------------------------------------------------------------

Reading the OPT-File                    .... done
Getting information on internals        .... done
Copying old internal coords+grads       .... done
Making the new internal coordinates     .... (new redundants).... done
Validating the new internal coordinates .... (new redundants).... done
Calculating the B-matrix                .... done
Calculating the G,G- and P matrices     .... done
Transforming gradient to internals      .... done
Projecting the internal gradient        .... done
Number of atoms                         ....  10
Number of internal coordinates          ....  38
Current Energy                          ....  -192.841355683 Eh
Current gradient norm                   ....     0.003265571 Eh/bohr
Maximum allowed component of the step   ....  0.300
Current trust radius                    ....  0.100
Evaluating the initial hessian          ....  (read) 
(Reading Exact Hessian)...  
InHessName: sn2.appr.hess	The file <sn2.appr.hess> is opened as a .hess file
done
done
Diagonalizing the Hessian               .... done
Dimension of the hessian                .... 38
Lowest eigenvalues of the non projected Hessian:
 -0.105300917 -0.000000000 -0.000000000 -0.000000000 -0.000000000
done
Projecting the Hessian                  .... done
Diagonalizing the Hessian               .... done
Dimension of the hessian                ....  38
Lowest eigenvalues of the Hessian:
 -0.105300917  0.012632339  0.018832870  0.021752642  0.038921891
Hessian has   1 negative eigenvalues
Taking P-RFO step
Searching for lambda that maximizes along the lowest mode
TS mode is mode number   0 with eigenvalue  -0.10530092 and components:
   1.    0.07156004
   2.    0.15608742
   3.   -0.03588677
   4.   -0.13146003
   5.    0.01155407
   6.    0.00027988
   7.    0.00289488
   8.    0.00149306
   9.   -0.01062978
  10.   -0.01479105
  11.    0.55076473
  12.   -0.07311090
  13.   -0.69299092
  14.    0.13878568
  15.   -0.00531226
  16.   -0.00567706
  17.    0.04507384
  18.   -0.00259731
  19.    0.00688874
  20.   -0.03978389
  21.    0.02488394
  22.   -0.00203041
  23.   -0.02255447
  24.    0.04898173
  25.    0.00227179
  26.    0.02637260
  27.    0.12792187
  28.    0.00726070
  29.    0.10574090
  30.    0.00887385
  31.   -0.01759672
  32.    0.00842201
  33.    0.03373127
  34.   -0.01804855
  35.    0.07609204
  36.    0.10001188
  37.    0.19984811
  38.    0.22376795

Lambda that maximizes along the TS mode:       0.00001812
Searching for lambda that minimizes along all other modes
In cycle   1: lambdaN =  -0.00008722   step =   0.00008722
In cycle   2: lambdaN =  -0.00008722   step =   0.00000000
Lambda that minimizes along all other modes:  -0.00008722
The final length of the internal step   ....       0.0464
Converting the step to cartesian space:
 Initial RMS(Int)=    0.0075351709
Transforming coordinates:
 Iter   0:  RMS(Cart)=    0.0127399170 RMS(Int)=    0.0075292218
 Iter   1:  RMS(Cart)=    0.0000721365 RMS(Int)=    0.0000663165
 Iter   2:  RMS(Cart)=    0.0000008842 RMS(Int)=    0.0000005960
 Iter   3:  RMS(Cart)=    0.0000000120 RMS(Int)=    0.0000000117
done
Storing new coordinates                 .... done

                                .--------------------.
          ----------------------|Geometry convergence|-------------------------
          Item                value                   Tolerance       Converged
          ---------------------------------------------------------------------
          RMS gradient        0.0007142362            0.0001000000      NO
          MAX gradient        0.0022805107            0.0003000000      NO
          RMS step            0.0075351709            0.0020000000      NO
          MAX step            0.0187597998            0.0040000000      NO
          ........................................................
          Max(Bonds)      0.0099      Max(Angles)    0.37
          Max(Dihed)        0.89      Max(Improp)    0.00
          ---------------------------------------------------------------------

The optimization has not yet converged - more geometry cycles are needed


    ---------------------------------------------------------------------------
                         Redundant Internal Coordinates
                            (Angstroem and degrees)

        Definition                    Value    dE/dq     Step     New-Value  comp.(TS mode)
    ----------------------------------------------------------------------------
     1. B(C   1,O   0)                2.4421  0.000438 -0.0030    2.4391   
     2. B(C   2,O   0)                1.2991 -0.001349 -0.0007    1.2984   
     3. B(C   2,C   1)                1.5027 -0.000411  0.0002    1.5029   
     4. B(C   3,C   2)                1.4315 -0.000615  0.0018    1.4333   
     5. B(C   3,O   0)                2.2374 -0.000455 -0.0012    2.2362   
     6. B(H   4,C   1)                1.1062  0.000115 -0.0002    1.1060   
     7. B(H   5,C   1)                1.1065  0.000014 -0.0001    1.1064   
     8. B(H   6,C   1)                1.1120  0.000052 -0.0001    1.1119   
     9. B(H   7,C   3)                1.1077  0.000045  0.0000    1.1077   
    10. B(H   8,C   3)                1.1027 -0.000892  0.0015    1.1041   
    11. B(H   9,C   3)                1.5311 -0.000203 -0.0099    1.5211          0.55
    12. B(H   9,C   2)                1.6349 -0.000193 -0.0023    1.6326   
    13. B(H   9,O   0)                1.3054  0.001207  0.0055    1.3109          0.69
    14. A(C   2,O   0,H   9)           77.76 -0.000057   -0.30     77.46   
    15. A(H   5,C   1,H   6)          108.16  0.000182   -0.08    108.09   
    16. A(H   4,C   1,H   6)          107.12  0.000230    0.04    107.15   
    17. A(C   2,C   1,H   5)          112.47  0.000742   -0.20    112.27   
    18. A(H   4,C   1,H   5)          110.43  0.000112   -0.04    110.39   
    19. A(C   2,C   1,H   6)          108.09 -0.000590    0.11    108.20   
    20. A(C   2,C   1,H   4)          110.37 -0.000696    0.18    110.55   
    21. A(C   1,C   2,C   3)          128.93 -0.002281    0.37    129.30   
    22. A(O   0,C   2,C   3)          109.95  0.000771   -0.16    109.79   
    23. A(O   0,C   2,C   1)          121.12  0.001508   -0.22    120.91   
    24. A(H   7,C   3,H   8)          112.80  0.000142    0.09    112.89   
    25. A(C   2,C   3,H   8)          121.21 -0.001490    0.35    121.56   
    26. A(C   2,C   3,H   7)          112.46  0.000567   -0.01    112.45   
    27. D(C   1,C   2,O   0,H   9)    168.81  0.000153   -0.41    168.40   
    28. D(O   0,C   2,C   1,H   6)     87.27  0.000138    0.54     87.81   
    29. D(C   3,C   2,O   0,H   9)    -10.44  0.000257   -0.43    -10.86   
    30. D(C   3,C   2,C   1,H   4)     23.20 -0.000405    0.77     23.97   
    31. D(O   0,C   2,C   1,H   4)   -155.88 -0.000313    0.75   -155.14   
    32. D(C   3,C   2,C   1,H   5)    147.03 -0.000242    0.70    147.73   
    33. D(C   3,C   2,C   1,H   6)    -93.64  0.000047    0.56    -93.08   
    34. D(O   0,C   2,C   1,H   5)    -32.06 -0.000150    0.68    -31.38   
    35. D(H   8,C   3,C   2,C   1)    -23.72  0.000013    0.28    -23.43   
    36. D(H   8,C   3,C   2,O   0)    155.45 -0.000061    0.30    155.75   
    37. D(H   7,C   3,C   2,C   1)    114.08 -0.000883    0.87    114.95   
    38. D(H   7,C   3,C   2,O   0)    -66.75 -0.000957    0.89    -65.86   
    ----------------------------------------------------------------------------

         *************************************************************
         *                GEOMETRY OPTIMIZATION CYCLE   2            *
         *************************************************************
---------------------------------
CARTESIAN COORDINATES (ANGSTROEM)
---------------------------------
  O     -0.937379   -0.924790    1.008383
  C      1.204631   -0.600410   -0.112249
  C     -0.197006   -0.186668    0.238349
  C     -0.919897    0.989273   -0.147724
  H      1.816725    0.283323   -0.372342
  H      1.686617   -1.178036    0.699063
  H      1.160228   -1.246116   -1.016324
  H     -1.793959    0.757407   -0.787468
  H     -0.398915    1.914302   -0.451091
  H     -1.621045    0.191715    0.941405

----------------------------
CARTESIAN COORDINATES (A.U.)
----------------------------
  NO LB      ZA    FRAG     MASS         X           Y           Z
   0 O     8.0000    0    15.999   -1.771390   -1.747600    1.905567
   1 C     6.0000    0    12.011    2.276423   -1.134610   -0.212120
   2 C     6.0000    0    12.011   -0.372287   -0.352751    0.450414
   3 C     6.0000    0    12.011   -1.738353    1.869455   -0.279158
   4 H     1.0000    0     1.008    3.433114    0.535403   -0.703624
   5 H     1.0000    0     1.008    3.187244   -2.226166    1.321037
   6 H     1.0000    0     1.008    2.192513   -2.354817   -1.920574
   7 H     1.0000    0     1.008   -3.390092    1.431292   -1.488100
   8 H     1.0000    0     1.008   -0.753841    3.617506   -0.852438
   9 H     1.0000    0     1.008   -3.063332    0.362289    1.778998

--------------------------------
INTERNAL COORDINATES (ANGSTROEM)
--------------------------------
 O      0   0   0     0.000000000000     0.00000000     0.00000000
 C      1   0   0     2.439107858252     0.00000000     0.00000000
 C      1   2   0     1.298433823679    31.91593226     0.00000000
 C      3   1   2     1.433338603948   109.78837609   180.73305550
 H      2   1   3     1.106025062646   134.45216194    33.47231169
 H      2   1   3     1.106430826791    88.63824660   151.18331625
 H      2   1   3     1.111871804706   105.14569094   259.56058990
 H      4   3   1     1.107709376655   112.44472046   294.14032519
 H      4   3   1     1.104142529691   121.55845512   155.75297272
 H      1   2   3     1.310904008888   108.73880601   348.04110413

---------------------------
INTERNAL COORDINATES (A.U.)
---------------------------
 O      0   0   0     0.000000000000     0.00000000     0.00000000
 C      1   0   0     4.609245863192     0.00000000     0.00000000
 C      1   2   0     2.453684329773    31.91593226     0.00000000
 C      3   1   2     2.708617418639   109.78837609   180.73305550
 H      2   1   3     2.090084465654   134.45216194    33.47231169
 H      2   1   3     2.090851248762    88.63824660   151.18331625
 H      2   1   3     2.101133206924   105.14569094   259.56058990
 H      4   3   1     2.093267357854   112.44472046   294.14032519
 H      4   3   1     2.086526993932   121.55845512   155.75297272
 H      1   2   3     2.477249564658   108.73880601   348.04110413



           ************************************************************
           *        Program running with 6 parallel MPI-processes     *
           *              working on a common directory               *
           ************************************************************
------------------------------------------------------------------------------
                   ___                                                        
                  /   \      - P O W E R E D   B Y -                         
                 /     \                                                     
                 |  |  |   _    _      __       _____    __    __             
                 |  |  |  | |  | |    /  \     |  _  \  |  |  /  |          
                  \  \/   | |  | |   /    \    | | | |  |  | /  /          
                 / \  \   | |__| |  /  /\  \   | |_| |  |  |/  /          
                |  |  |   |  __  | /  /__\  \  |    /   |      \           
                |  |  |   | |  | | |   __   |  |    \   |  |\   \          
                \     /   | |  | | |  |  |  |  | |\  \  |  | \   \       
                 \___/    |_|  |_| |__|  |__|  |_| \__\ |__|  \__/        
                                                                              
                      - O R C A' S   B I G   F R I E N D -                    
                                      &                                       
                       - I N T E G R A L  F E E D E R -                       
                                                                              
 v1 FN, 2020, v2 2021                                                         
------------------------------------------------------------------------------


Reading SHARK input file sn2.SHARKINP.tmp ... ok
----------------------
SHARK INTEGRAL PACKAGE
----------------------

Number of atoms                             ...     10
Number of basis functions                   ...     86
Number of shells                            ...     42
Maximum angular momentum                    ...      2
Integral batch strategy                     ... SHARK/LIBINT Hybrid
RI-J (if used) integral strategy            ... SPLIT-RIJ (Revised 2003 algorithm where possible)
Printlevel                                  ...      1
Contraction scheme used                     ... SEGMENTED contraction
Coulomb Range Separation                    ... NOT USED
Exchange Range Separation                   ... NOT USED
Finite Nucleus Model                        ... NOT USED
Auxiliary Coulomb fitting basis             ... AVAILABLE
   # of basis functions in Aux-J            ...    262
   # of shells in Aux-J                     ...     90
   Maximum angular momentum in Aux-J        ...      4
Auxiliary J/K fitting basis                 ... NOT available
Auxiliary Correlation fitting basis         ... NOT available
Auxiliary 'external' fitting basis          ... NOT available
Integral threshold                          ...     2.500000e-11
Primitive cut-off                           ...     2.500000e-12
Primitive pair pre-selection threshold      ...     2.500000e-12

Calculating pre-screening integrals         ... done (  0.0 sec) Dimension = 42
Organizing shell pair data                  ... done (  0.3 sec)
Shell pair information
Total number of shell pairs                 ...       903
Shell pairs after pre-screening             ...       898
Total number of primitive shell pairs       ...      3151
Primitive shell pairs kept                  ...      2600
          la=0 lb=0:    297 shell pairs
          la=1 lb=0:    334 shell pairs
          la=1 lb=1:    105 shell pairs
          la=2 lb=0:     96 shell pairs
          la=2 lb=1:     56 shell pairs
          la=2 lb=2:     10 shell pairs

Calculating one electron integrals          ... done (  0.1 sec)
Calculating RI/J V-Matrix + Cholesky decomp.... done (  0.9 sec)
Calculating Nuclear repulsion               ... done (  0.0 sec) ENN=    119.724130136638 Eh

SHARK setup successfully completed in   2.0 seconds

Maximum memory used throughout the entire GTOINT-calculation: 9.6 MB


           ************************************************************
           *        Program running with 6 parallel MPI-processes     *
           *              working on a common directory               *
           ************************************************************

Diagonalization of the overlap matrix:
Smallest eigenvalue                        ... 2.973e-03
Time for diagonalization                   ...    0.001 sec
Threshold for overlap eigenvalues          ... 1.000e-08
Number of eigenvalues below threshold      ... 0
Time for construction of square roots      ...    0.001 sec
Total time needed                          ...    0.018 sec

-------------------
DFT GRID GENERATION
-------------------

General Integration Accuracy     IntAcc      ... 4.388
Radial Grid Type                 RadialGrid  ... OptM3 with GC (2021)
Angular Grid (max. ang.)         AngularGrid ... 4 (Lebedev-302)
Angular grid pruning method      GridPruning ... 4 (adaptive)
Weight generation scheme         WeightScheme... Becke
Basis function cutoff            BFCut       ... 1.0000e-11
Integration weight cutoff        WCut        ... 1.0000e-14
Angular grids for H and He will be reduced by one unit
Partially contracted basis set               ... off
Rotationally invariant grid construction     ... off

Total number of grid points                  ...    43785
Total number of batches                      ...      688
Average number of points per batch           ...       63
Average number of grid points per atom       ...     4378
Time for grid setup =    1.071 sec

--------------
SCF ITERATIONS
--------------
ITER       Energy         Delta-E        Max-DP      RMS-DP      [F,P]     Damp
               ***  Starting incremental Fock matrix formation  ***
                      *** Initiating the SOSCF procedure ***
                      *** Re-Reading the Fockian *** 
                      *** Removing any level shift *** 
ITER      Energy       Delta-E        Grad      Rot      Max-DP    RMS-DP
  0   -192.82884265 -192.8288426452  0.000948  0.000948  0.003496  0.000207
               *** Restarting incremental Fock matrix formation ***
  1   -192.82892182  -0.0000791701  0.000558  0.002303  0.003763  0.000167
  2   -192.82888693   0.0000348899  0.001929  0.002347  0.003077  0.000121
  3   -192.82893300  -0.0000460705  0.000167  0.001502  0.001125  0.000053
  4   -192.82893319  -0.0000001933  0.000150  0.000481  0.000437  0.000019
  5   -192.82893356  -0.0000003669  0.000071  0.000292  0.000377  0.000018
  6   -192.82893369  -0.0000001327  0.000024  0.000189  0.000196  0.000008
  7   -192.82893372  -0.0000000353  0.000008  0.000016  0.000032  0.000002
  8   -192.82893372   0.0000000000  0.000007  0.000016  0.000017  0.000001
                 **** Energy Check signals convergence ****
              ***Rediagonalizing the Fockian in SOSCF/NRSCF***

               *****************************************************
               *                     SUCCESS                       *
               *           SCF CONVERGED AFTER   9 CYCLES          *
               *****************************************************

Total Energy       :         -192.82893373 Eh           -5247.14205 eV
  Last Energy change         ...   -2.1461e-09  Tolerance :   1.0000e-08
  Last MAX-Density change    ...    4.4940e-06  Tolerance :   1.0000e-07
             **** THE GBW FILE WAS UPDATED (sn2.gbw) ****
             **** DENSITY sn2.scfp WAS UPDATED ****
             **** ENERGY FILE WAS UPDATED (sn2.en.tmp) ****
             **** THE GBW FILE WAS UPDATED (sn2.gbw) ****
             **** DENSITY sn2.scfp WAS UPDATED ****
Total SCF time: 0 days 0 hours 0 min 14 sec 

Maximum memory used throughout the entire SCF-calculation: 13.0 MB


-------------------------------------------------------------------------------
                          DFT DISPERSION CORRECTION                            
                                                                               
                              DFTD3 V3.1  Rev 1                                
                          USING Becke-Johnson damping                          
-------------------------------------------------------------------------------
-------------------------   ----------------
Dispersion correction           -0.012478549
-------------------------   ----------------


-------------------------   --------------------
FINAL SINGLE POINT ENERGY      -192.841412274970
-------------------------   --------------------



           ************************************************************
           *        Program running with 6 parallel MPI-processes     *
           *              working on a common directory               *
           ************************************************************
------------------------------------------------------------------------------
                         ORCA SCF GRADIENT CALCULATION
------------------------------------------------------------------------------

Gradient of the Kohn-Sham DFT energy:
Kohn-Sham wavefunction type      ... RKS
Hartree-Fock exchange scaling    ...    0.000
Number of operators              ...    1
Number of atoms                  ...   10
Basis set dimensions             ...   86
Integral neglect threshold       ... 2.5e-11
Integral primitive cutoff        ... 2.5e-12
SHARK Integral package           ... ON

Nuc. rep. gradient       (SHARK) ... done (  0.0 sec)
HCore & Overlap gradient (SHARK) ... done (  0.2 sec)
RI-J gradient            (SHARK) ... done (  0.5 sec)
Exchange-correlation gradient    ... done
Dispersion correction            ... done

------------------
CARTESIAN GRADIENT
------------------

   1   O   :   -0.000236440    0.001241063   -0.000979782
   2   C   :    0.000469154    0.000286369   -0.000060641
   3   C   :   -0.000127765   -0.000703546    0.001367947
   4   C   :   -0.000665491   -0.000380558    0.000115348
   5   H   :   -0.000281482    0.000070464   -0.000134756
   6   H   :    0.000300070    0.000049976   -0.000067698
   7   H   :   -0.000263979   -0.000047129    0.000043954
   8   H   :   -0.000096127    0.000354044   -0.000159869
   9   H   :    0.000613447   -0.000225104   -0.000134717
  10   H   :    0.000288614   -0.000645579    0.000010215

Difference to translation invariance:
           :   -0.0000000000   -0.0000000000   -0.0000000000

Difference to rotation invariance:
           :    0.0000597194   -0.0001047727   -0.0000490021

Norm of the cartesian gradient     ...    0.0026877995
RMS gradient                       ...    0.0004907228
MAX gradient                       ...    0.0013679472

-------
TIMINGS
-------

Total SCF gradient time            ...        1.825 sec

One electron gradient       ....       0.184 sec  ( 10.1%)
RI-J Coulomb gradient       ....       0.478 sec  ( 26.2%)
XC gradient                 ....       0.516 sec  ( 28.3%)

Maximum memory used throughout the entire SCFGRAD-calculation: 26.2 MB
------------------------------------------------------------------------------
                         ORCA GEOMETRY RELAXATION STEP
------------------------------------------------------------------------------

Reading the OPT-File                    .... done
Getting information on internals        .... done
Copying old internal coords+grads       .... done
Making the new internal coordinates     .... (new redundants).... done
Validating the new internal coordinates .... (new redundants).... done
Calculating the B-matrix                .... done
Calculating the G,G- and P matrices     .... done
Transforming gradient to internals      .... done
Projecting the internal gradient        .... done
Number of atoms                         ....  10
Number of internal coordinates          ....  38
Current Energy                          ....  -192.841412275 Eh
Current gradient norm                   ....     0.002687800 Eh/bohr
Maximum allowed component of the step   ....  0.300
Current trust radius                    ....  0.100
Updating the Hessian (Bofill)          .... Diagonalizing the Hessian               .... done
Dimension of the hessian                ....  38
Lowest eigenvalues of the Hessian:
 -0.109321395  0.006651656  0.018141680  0.029105563  0.037780672
Hessian has   1 negative eigenvalues
Taking P-RFO step
Searching for lambda that maximizes along the lowest mode
TS mode is mode number   0 with eigenvalue  -0.10932139 and components:
   1.    0.08387153
   2.    0.14699776
   3.   -0.03524229
   4.   -0.13172400
   5.    0.00662789
   6.   -0.00070602
   7.    0.00371882
   8.    0.00162030
   9.   -0.00888838
  10.   -0.01338923
  11.    0.55162717
  12.   -0.07838859
  13.   -0.69954221
  14.    0.14109464
  15.   -0.00388587
  16.   -0.00470033
  17.    0.05653640
  18.   -0.00097337
  19.   -0.00155937
  20.   -0.04728678
  21.    0.00824462
  22.   -0.00032039
  23.   -0.00754183
  24.    0.04567769
  25.   -0.02103762
  26.    0.03672097
  27.    0.13644841
  28.   -0.00969780
  29.    0.10832012
  30.   -0.00871977
  31.   -0.04258558
  32.   -0.00431437
  33.    0.02416800
  34.   -0.03818017
  35.    0.07324652
  36.    0.10402009
  37.    0.17462760
  38.    0.20540117

Lambda that maximizes along the TS mode:       0.00000243
Searching for lambda that minimizes along all other modes
In cycle   1: lambdaN =  -0.00009288   step =   0.00009288
In cycle   2: lambdaN =  -0.00009289   step =   0.00000001
In cycle   3: lambdaN =  -0.00009289   step =   0.00000000
Lambda that minimizes along all other modes:  -0.00009289
Calculated stepsize too large (   0.1029 >    0.1000). Scaled with    0.9718.
The final length of the internal step   ....       0.1000
Converting the step to cartesian space:
 Initial RMS(Int)=    0.0162221421
Transforming coordinates:
 Iter   0:  RMS(Cart)=    0.0221311744 RMS(Int)=    0.0161949720
 Iter   1:  RMS(Cart)=    0.0002884352 RMS(Int)=    0.0002545868
 Iter   2:  RMS(Cart)=    0.0000072932 RMS(Int)=    0.0000051518
 Iter   3:  RMS(Cart)=    0.0000001874 RMS(Int)=    0.0000001719
 Iter   4:  RMS(Cart)=    0.0000000049 RMS(Int)=    0.0000000035
done
Storing new coordinates                 .... done
The predicted energy change is          ....    -0.000045659
Previously predicted energy change      ....    -0.000034631
Actually observed energy change         ....    -0.000056592
Ratio of predicted to observed change   ....     1.634138693
New trust radius                        ....     0.100000000

                                .--------------------.
          ----------------------|Geometry convergence|-------------------------
          Item                value                   Tolerance       Converged
          ---------------------------------------------------------------------
          Energy change      -0.0000565921            0.0000050000      NO
          RMS gradient        0.0004240252            0.0001000000      NO
          MAX gradient        0.0012338508            0.0003000000      NO
          RMS step            0.0162221421            0.0020000000      NO
          MAX step            0.0475701407            0.0040000000      NO
          ........................................................
          Max(Bonds)      0.0042      Max(Angles)    0.66
          Max(Dihed)        2.73      Max(Improp)    0.00
          ---------------------------------------------------------------------

The optimization has not yet converged - more geometry cycles are needed


    ---------------------------------------------------------------------------
                         Redundant Internal Coordinates
                            (Angstroem and degrees)

        Definition                    Value    dE/dq     Step     New-Value  comp.(TS mode)
    ----------------------------------------------------------------------------
     1. B(C   1,O   0)                2.4391  0.000272 -0.0035    2.4356   
     2. B(C   2,O   0)                1.2984 -0.000920  0.0026    1.3010   
     3. B(C   2,C   1)                1.5029 -0.000080 -0.0007    1.5022   
     4. B(C   3,C   2)                1.4333  0.000108 -0.0004    1.4329   
     5. B(C   3,O   0)                2.2362 -0.000350  0.0017    2.2379   
     6. B(H   4,C   1)                1.1060 -0.000067  0.0002    1.1063   
     7. B(H   5,C   1)                1.1064  0.000053 -0.0002    1.1062   
     8. B(H   6,C   1)                1.1119  0.000003 -0.0000    1.1119   
     9. B(H   7,C   3)                1.1077  0.000096 -0.0004    1.1073   
    10. B(H   8,C   3)                1.1041  0.000136 -0.0006    1.1036   
    11. B(H   9,C   3)                1.5212  0.000257  0.0042    1.5254          0.55
    12. B(H   9,C   2)                1.6326 -0.000367  0.0039    1.6365   
    13. B(H   9,O   0)                1.3109 -0.000408  0.0004    1.3113          0.70
    14. A(C   2,O   0,H   9)           77.46  0.000240    0.12     77.58   
    15. A(H   5,C   1,H   6)          108.09  0.000016   -0.04    108.04   
    16. A(H   4,C   1,H   6)          107.15  0.000192    0.01    107.16   
    17. A(C   2,C   1,H   5)          112.27  0.000612   -0.28    111.99   
    18. A(H   4,C   1,H   5)          110.40  0.000013   -0.06    110.33   
    19. A(C   2,C   1,H   6)          108.20 -0.000442    0.23    108.43   
    20. A(C   2,C   1,H   4)          110.55 -0.000410    0.17    110.72   
    21. A(C   1,C   2,C   3)          129.30 -0.001063    0.41    129.71   
    22. A(O   0,C   2,C   3)          109.79  0.000198   -0.00    109.79   
    23. A(O   0,C   2,C   1)          120.91  0.000867   -0.42    120.49   
    24. A(H   7,C   3,H   8)          112.89  0.000077    0.23    113.13   
    25. A(C   2,C   3,H   8)          121.56 -0.001234    0.66    122.22   
[...]
     17       0.000000   0.000000   0.000000   0.000000   0.000000   0.000000
     18       0.000000   0.000000   0.000000   0.000000   0.000000   0.000000
     19       0.000000   0.000000   0.000000   0.000000   0.000000   0.000000
     20       0.000000   0.000000   0.000000   0.000000   0.000000   0.000000
     21       0.000000   0.000000   0.000000   0.000000   0.000000   0.000000
     22       0.000000   0.000000   0.000000   0.000000   0.000000   0.000000
     23       0.000000   0.000000   0.000000   0.000000   0.000000   0.000000
     24       0.000000   0.000000   0.000000   0.000000   0.000000   0.000000
     25       0.000000   0.000000   0.000000   0.000000   0.000000   0.000000
     26       0.000000   0.000000   0.000000   0.000000   0.000000   0.000000
     27       0.000000   0.000000   0.000000   0.000000   0.000000   0.000000
     28       0.000000   0.000000   0.000000   0.000000   0.000000   0.000000
     29       0.000000   0.000000   0.000000   0.000000   0.000000   0.000000
                  6          7          8          9         10         11    
      0      -0.038827   0.023221  -0.123907   0.055024  -0.097468  -0.138374
      1       0.017288   0.030844  -0.019915  -0.006571   0.013747   0.174068
      2       0.011884   0.036117   0.096987   0.005660  -0.058465   0.032712
      3      -0.000552  -0.004722  -0.013734   0.004043   0.072257   0.209163
      4       0.001485  -0.009436   0.144581  -0.002761  -0.002089  -0.085880
      5       0.003726  -0.006003  -0.089086   0.056921  -0.017287  -0.088512
      6       0.010229  -0.008047  -0.056544  -0.086714   0.061942   0.026743
      7       0.049936  -0.009832  -0.140174  -0.089263   0.025895  -0.130001
      8      -0.034154  -0.018166   0.049682  -0.169854   0.056029  -0.111701
      9       0.039153  -0.018388   0.184785   0.000039   0.024594  -0.120713
     10      -0.000378  -0.021482  -0.062038   0.040827  -0.031626  -0.006638
     11      -0.026879  -0.029165  -0.049718   0.012257   0.030914   0.169802
     12       0.004806   0.079224  -0.300707  -0.146583   0.124596  -0.077325
     13      -0.004296  -0.111354   0.372935   0.111833  -0.042293   0.141050
     14       0.001236   0.589212  -0.071707   0.160443  -0.050282   0.029728
     15       0.007443  -0.225013   0.351625  -0.062915   0.077461   0.417780
     16       0.003568  -0.357513   0.187025   0.159780  -0.041626   0.048366
     17       0.007158  -0.304833  -0.236653   0.287298  -0.067460  -0.033727
     18      -0.000498   0.186201  -0.023082   0.363536  -0.026355   0.518674
     19      -0.006059   0.526636   0.309708  -0.139324   0.007843  -0.053129
     20       0.007992  -0.171916  -0.142084   0.113157  -0.024062  -0.089464
     21      -0.105426  -0.037734   0.058364  -0.354852  -0.269600   0.203207
     22       0.052292  -0.040764   0.184653   0.353964  -0.261521  -0.142236
     23       0.191199   0.014157   0.028359   0.434740   0.648316  -0.319059
     24       0.042116  -0.027319   0.433508   0.033066  -0.353114  -0.149974
     25      -0.058048  -0.046405  -0.215477  -0.015542  -0.057054   0.086900
     26      -0.112329  -0.089094  -0.083528  -0.057101  -0.406535   0.303145
     27       0.085976   0.027335   0.082512   0.279036   0.101902  -0.088687
     28      -0.870065   0.025403   0.163945   0.243617   0.269642  -0.192297
     29       0.398973   0.024729   0.028187   0.171250  -0.002017  -0.047456
                 12         13         14         15         16         17    
      0       0.033212   0.035458  -0.024747  -0.025702   0.005992   0.048803
      1       0.001996   0.068142   0.087644  -0.062569   0.026570   0.039554
      2      -0.037515  -0.046256  -0.040778   0.060312  -0.090673  -0.018771
      3      -0.069694  -0.159189  -0.044051  -0.000859  -0.035141   0.005157
      4       0.003066  -0.031709   0.144050   0.007853  -0.096305  -0.015093
      5       0.010407   0.021902  -0.031420  -0.158520  -0.039139   0.001997
      6      -0.010782   0.069613   0.040668  -0.023198   0.073040  -0.026438
      7      -0.017875  -0.023298  -0.012357   0.061213   0.118560  -0.016755
      8      -0.029588  -0.017932  -0.067062   0.076828   0.120124   0.023426
      9       0.013158   0.104466   0.031605   0.050523  -0.100090   0.014923
     10       0.063475  -0.071907  -0.195243   0.028815  -0.096764  -0.015269
     11       0.117842   0.005030   0.113943  -0.038432   0.001060   0.042759
     12      -0.198718  -0.502848   0.377482   0.041700  -0.337713  -0.032945
     13       0.101740   0.240576  -0.206437  -0.047283   0.144641   0.013332
     14       0.070022   0.129849   0.003917   0.266462   0.159046   0.017965
     15      -0.040220   0.060690  -0.639203  -0.339104   0.217165   0.077029
     16       0.077161   0.120494   0.032965   0.227621   0.143932  -0.009251
     17       0.081048   0.076892   0.156865   0.298838   0.111916  -0.029667
     18       0.081480   0.062755  -0.091558   0.646742   0.284948   0.004243
     19      -0.004161   0.120968  -0.203437  -0.314060   0.065205   0.002544
     20       0.018565  -0.015345   0.079722  -0.027723  -0.074315  -0.001528
     21       0.334190   0.074506   0.032952   0.064710  -0.185315  -0.203231
     22      -0.406651  -0.310485  -0.012999  -0.128795   0.310892   0.327325
     23      -0.191756   0.203673   0.024616   0.028285  -0.056547   0.199958
     24       0.108420  -0.382889   0.284137  -0.097687   0.452601   0.091638
     25      -0.363265   0.353230  -0.272346   0.118713  -0.351545  -0.168968
     26      -0.655597   0.360378   0.251737  -0.011097   0.088072  -0.185684
     27      -0.010149  -0.052424   0.092691  -0.223785   0.214251  -0.635574
     28      -0.016389  -0.094064   0.028406  -0.029407   0.152968  -0.231353
     29       0.097536  -0.128527  -0.053856  -0.080681   0.233384  -0.515544
                 18         19         20         21         22         23    
      0      -0.037654   0.019029  -0.022943   0.002383  -0.025456   0.070932
      1      -0.019023   0.011998  -0.029497   0.002511  -0.016320   0.112458
      2       0.030062  -0.017374   0.041641  -0.006896   0.035147  -0.139746
      3       0.009416   0.137951   0.040045   0.021521  -0.074682   0.012524
      4       0.012476  -0.026248  -0.061873   0.030216   0.039071   0.023918
      5      -0.033824  -0.042841   0.019537   0.037371   0.005418  -0.020883
      6       0.175493  -0.079327   0.021305   0.010160   0.161678  -0.054010
      7      -0.075500   0.017033   0.046983   0.002720  -0.081631  -0.283857
      8       0.012683   0.008936  -0.048546   0.027087  -0.014748   0.239241
      9      -0.038130  -0.000394  -0.005079  -0.004340  -0.108284  -0.040053
     10       0.030793   0.013305   0.006503  -0.002434   0.136531   0.089364
     11       0.002820  -0.018337   0.003847  -0.007186  -0.058679  -0.073113
     12      -0.235916  -0.339131  -0.103376  -0.303432   0.037311   0.218768
     13       0.179341   0.307289   0.099692   0.300015  -0.057051  -0.122330
     14       0.210911   0.362291  -0.497678  -0.338012   0.097956  -0.295664
     15      -0.358631  -0.247639  -0.363260  -0.342801   0.072906  -0.348948
     16       0.055284  -0.060307   0.053105  -0.485646  -0.004973   0.125374
     17       0.209075   0.122862   0.347729  -0.389927  -0.121366   0.301682
     18      -0.328376  -0.550500   0.070660   0.321874   0.058119   0.127083
     19      -0.034208  -0.171264   0.585101  -0.265266  -0.160753   0.306061
     20      -0.016985   0.001667  -0.195297   0.124617   0.072403  -0.105936
     21      -0.064546   0.005260  -0.011484  -0.014967  -0.157842  -0.066980
     22       0.494068  -0.299392  -0.117486   0.041851  -0.424867  -0.058972
     23      -0.250747   0.168086   0.091679  -0.011611   0.347580   0.043362
     24      -0.312688   0.231465   0.146779  -0.006328   0.573852   0.009233
     25       0.060723  -0.027608  -0.055636   0.000443  -0.094655   0.134405
     26      -0.294516   0.177485   0.050201  -0.007545   0.211542   0.045280
     27       0.148841  -0.095322  -0.045678  -0.017962   0.073362  -0.093388
     28      -0.069226   0.012120   0.003323   0.005289  -0.118392  -0.136970
     29      -0.116587   0.065873  -0.157731   0.049500  -0.355612   0.498653
                 24         25         26         27         28         29    
      0       0.017886  -0.000316  -0.000085  -0.000119   0.000137   0.000066
      1       0.018676  -0.000270  -0.000235  -0.000228   0.000566  -0.000771
      2      -0.015415   0.000342   0.000545  -0.000137  -0.000516   0.000464
      3       0.013904   0.043696   0.001108  -0.036583   0.007119   0.000614
      4      -0.007916  -0.005967  -0.000153  -0.059889  -0.067196   0.002916
      5      -0.010109  -0.026091  -0.000792  -0.057891   0.065418  -0.000933
      6      -0.099987  -0.000672   0.002799  -0.000058  -0.001040   0.002926
      7       0.003945   0.000757  -0.004233  -0.000644  -0.000959  -0.001215
      8       0.069286   0.000048   0.000057  -0.000501   0.001412   0.000041
      9       0.003551   0.000221  -0.041552   0.001261   0.001697   0.064233
     10       0.004030  -0.000854   0.019327   0.001245   0.002250   0.070275
     11       0.018119   0.001258  -0.050292   0.000267  -0.000364  -0.008382
     12      -0.013087  -0.363581  -0.006791   0.449701   0.209617  -0.017733
     13       0.012804  -0.470602  -0.011019   0.567068   0.257343  -0.020681
     14      -0.014848  -0.040050  -0.000983   0.027074   0.029724  -0.001879
     15      -0.023129  -0.140714  -0.004991   0.008568  -0.288214   0.005130
     16      -0.014903   0.328188   0.010226  -0.044870   0.647013  -0.013424
     17       0.010785  -0.279868  -0.007913   0.018794  -0.540014   0.011379
     18       0.042663  -0.003707  -0.000779  -0.020852   0.003848   0.000075
     19      -0.002743   0.206610   0.005799   0.201493  -0.102497   0.001826
     20      -0.011323   0.626751   0.017416   0.650705  -0.274855   0.002007
     21       0.023050  -0.013851   0.706524  -0.008563  -0.012970  -0.420524
     22      -0.008557  -0.005636   0.243950  -0.002753  -0.003662  -0.134120
     23      -0.016751  -0.008703   0.403375  -0.006184  -0.007777  -0.260511
     24      -0.054798   0.009470  -0.237509  -0.006066  -0.009367  -0.367985
     25      -0.009935   0.017565  -0.424668  -0.010933  -0.017093  -0.687479
     26      -0.032014  -0.007394   0.190880   0.004677   0.008261   0.344728
     27       0.724839   0.002100  -0.006540   0.000677   0.002250  -0.007562
     28      -0.273797   0.000402   0.001410   0.000073  -0.004801   0.008477
     29      -0.612218  -0.000835  -0.003394  -0.000296   0.000860   0.007414


-----------
IR SPECTRUM
-----------

 Mode   freq       eps      Int      T**2         TX        TY        TZ
       cm**-1   L/(mol*cm) km/mol    a.u.
----------------------------------------------------------------------------
  7:     71.67   0.000137    0.69  0.000598  ( 0.012811  0.006383  0.019824)
  8:    369.49   0.000811    4.10  0.000685  (-0.002555  0.024273 -0.009467)
  9:    416.62   0.004578   23.13  0.003429  (-0.030278  0.049409  0.008427)
 10:    559.06   0.004235   21.40  0.002364  (-0.018786  0.044357 -0.006589)
 11:    640.53   0.008730   44.12  0.004253  ( 0.037650 -0.053241  0.001129)
 12:    735.23   0.013466   68.05  0.005715  ( 0.033025 -0.062278 -0.027317)
 13:    864.43   0.000595    3.01  0.000215  (-0.001297  0.008837  0.011617)
 14:    946.09   0.000140    0.71  0.000046  ( 0.003694 -0.002997 -0.004868)
 15:    981.54   0.003713   18.76  0.001180  (-0.019773  0.027768 -0.004286)
 16:   1046.71   0.003004   15.18  0.000896  ( 0.008333 -0.003525  0.028525)
 17:   1109.88   0.012968   65.54  0.003646  (-0.055054  0.004994 -0.024298)
 18:   1282.65   0.005375   27.16  0.001308  ( 0.026906 -0.022885 -0.007747)
 19:   1334.97   0.008083   40.85  0.001889  (-0.034992 -0.002831  0.025631)
 20:   1383.96   0.009564   48.33  0.002156  ( 0.006866  0.032293 -0.032657)
 21:   1403.26   0.001937    9.79  0.000431  (-0.006806 -0.017567 -0.008713)
 22:   1429.23   0.010103   51.06  0.002206  ( 0.039283 -0.025617 -0.002557)
 23:   1491.36   0.037837  191.21  0.007917  ( 0.009802 -0.067166  0.057532)
 24:   1765.31   0.000999    5.05  0.000177  (-0.010700 -0.006638  0.004245)
 25:   2960.46   0.000286    1.44  0.000030  ( 0.004484 -0.002444 -0.002006)
 26:   3004.40   0.000232    1.17  0.000024  ( 0.004678  0.001426 -0.000410)
 27:   3025.18   0.000519    2.62  0.000054  (-0.001323 -0.005405 -0.004752)
 28:   3073.93   0.001591    8.04  0.000161  ( 0.007777 -0.008666  0.005089)
 29:   3083.69   0.002046   10.34  0.000207  ( 0.002717  0.012921 -0.005725)

* The epsilon (eps) is given for a Dirac delta lineshape.
** The dipole moment derivative (T) already includes vibrational overlap.

The first frequency considered to be a vibration is 7
The total number of vibrations considered is 23


--------------------------
THERMOCHEMISTRY AT 298.15K
--------------------------

Temperature         ... 298.15 K
Pressure            ... 1.00 atm
Total Mass          ... 58.08 AMU

Throughout the following assumptions are being made:
  (1) The electronic state is orbitally nondegenerate
  (2) There are no thermally accessible electronically excited states
  (3) Hindered rotations indicated by low frequency modes are not
      treated as such but are treated as vibrations and this may
      cause some error
  (4) All equations used are the standard statistical mechanics
      equations for an ideal gas
  (5) All vibrations are strictly harmonic

freq.      71.67  E(vib)   ...       0.50 
freq.     369.49  E(vib)   ...       0.21 
freq.     416.62  E(vib)   ...       0.18 
freq.     559.06  E(vib)   ...       0.12 
freq.     640.53  E(vib)   ...       0.09 
freq.     735.23  E(vib)   ...       0.06 
freq.     864.43  E(vib)   ...       0.04 
freq.     946.09  E(vib)   ...       0.03 
freq.     981.54  E(vib)   ...       0.02 
freq.    1046.71  E(vib)   ...       0.02 
freq.    1109.88  E(vib)   ...       0.02 
freq.    1282.65  E(vib)   ...       0.01 
freq.    1334.97  E(vib)   ...       0.01 
freq.    1383.96  E(vib)   ...       0.00 
freq.    1403.26  E(vib)   ...       0.00 
freq.    1429.23  E(vib)   ...       0.00 
freq.    1491.36  E(vib)   ...       0.00 
freq.    1765.31  E(vib)   ...       0.00 
freq.    2960.46  E(vib)   ...       0.00 
freq.    3004.40  E(vib)   ...       0.00 
freq.    3025.18  E(vib)   ...       0.00 
freq.    3073.93  E(vib)   ...       0.00 
freq.    3083.69  E(vib)   ...       0.00 

------------
INNER ENERGY
------------

The inner energy is: U= E(el) + E(ZPE) + E(vib) + E(rot) + E(trans)
    E(el)   - is the total energy from the electronic structure calculation
              = E(kin-el) + E(nuc-el) + E(el-el) + E(nuc-nuc)
    E(ZPE)  - the the zero temperature vibrational energy from the frequency calculation
    E(vib)  - the the finite temperature correction to E(ZPE) due to population
              of excited vibrational states
    E(rot)  - is the rotational thermal energy
    E(trans)- is the translational thermal energy

Summary of contributions to the inner energy U:
Electronic energy                ...   -192.84161360 Eh
Zero point energy                ...      0.07513315 Eh      47.15 kcal/mol
Thermal vibrational correction   ...      0.00209805 Eh       1.32 kcal/mol
Thermal rotational correction    ...      0.00141627 Eh       0.89 kcal/mol
Thermal translational correction ...      0.00141627 Eh       0.89 kcal/mol
-----------------------------------------------------------------------
Total thermal energy                   -192.76154986 Eh


Summary of corrections to the electronic energy:
(perhaps to be used in another calculation)
Total thermal correction                  0.00493059 Eh       3.09 kcal/mol
Non-thermal (ZPE) correction              0.07513315 Eh      47.15 kcal/mol
-----------------------------------------------------------------------
Total correction                          0.08006374 Eh      50.24 kcal/mol


--------
ENTHALPY
--------

The enthalpy is H = U + kB*T
                kB is Boltzmann's constant
Total free energy                 ...   -192.76154986 Eh 
Thermal Enthalpy correction       ...      0.00094421 Eh       0.59 kcal/mol
-----------------------------------------------------------------------
Total Enthalpy                    ...   -192.76060565 Eh


Note: Only C1 symmetry has been detected, increase convergence thresholds 
      if your molecule has a higher symmetry. Symmetry factor of 1.0 is   
      used for the rotational entropy correction. 
 

Note: Rotational entropy computed according to Herzberg 
Infrared and Raman Spectra, Chapter V,1, Van Nostrand Reinhold, 1945 
Point Group:  C1, Symmetry Number:   1  
Rotational constants in cm-1:     0.380396     0.266424     0.164809 

Vibrational entropy computed according to the QRRHO of S. Grimme
Chem.Eur.J. 2012 18 9955


-------
ENTROPY
-------

The entropy contributions are T*S = T*(S(el)+S(vib)+S(rot)+S(trans))
     S(el)   - electronic entropy
     S(vib)  - vibrational entropy
     S(rot)  - rotational entropy
     S(trans)- translational entropy
The entropies will be listed as multiplied by the temperature to get
units of energy

Electronic entropy                ...      0.00000000 Eh      0.00 kcal/mol
Vibrational entropy               ...      0.00341353 Eh      2.14 kcal/mol
Rotational entropy                ...      0.01144269 Eh      7.18 kcal/mol
Translational entropy             ...      0.01810171 Eh     11.36 kcal/mol
-----------------------------------------------------------------------
Final entropy term                ...      0.03295793 Eh     20.68 kcal/mol

In case the symmetry of your molecule has not been determined correctly
or in case you have a reason to use a different symmetry number we print 
out the resulting rotational entropy values for sn=1,12 :
 --------------------------------------------------------
|  sn= 1 | S(rot)=       0.01144269 Eh      7.18 kcal/mol|
|  sn= 2 | S(rot)=       0.01078823 Eh      6.77 kcal/mol|
|  sn= 3 | S(rot)=       0.01040540 Eh      6.53 kcal/mol|
|  sn= 4 | S(rot)=       0.01013377 Eh      6.36 kcal/mol|
|  sn= 5 | S(rot)=       0.00992309 Eh      6.23 kcal/mol|
|  sn= 6 | S(rot)=       0.00975094 Eh      6.12 kcal/mol|
|  sn= 7 | S(rot)=       0.00960540 Eh      6.03 kcal/mol|
|  sn= 8 | S(rot)=       0.00947932 Eh      5.95 kcal/mol|
|  sn= 9 | S(rot)=       0.00936811 Eh      5.88 kcal/mol|
|  sn=10 | S(rot)=       0.00926863 Eh      5.82 kcal/mol|
|  sn=11 | S(rot)=       0.00917864 Eh      5.76 kcal/mol|
|  sn=12 | S(rot)=       0.00909648 Eh      5.71 kcal/mol|
 --------------------------------------------------------


-------------------
GIBBS FREE ENERGY
-------------------

The Gibbs free energy is G = H - T*S

Total enthalpy                    ...   -192.76060565 Eh 
Total entropy correction          ...     -0.03295793 Eh    -20.68 kcal/mol
-----------------------------------------------------------------------
Final Gibbs free energy         ...   -192.79356358 Eh

For completeness - the Gibbs free energy minus the electronic energy
G-E(el)                           ...      0.04805002 Eh     30.15 kcal/mol


Timings for individual modules:

Sum of individual times         ...     1234.010 sec (=  20.567 min)
GTO integral calculation        ...       32.941 sec (=   0.549 min)   2.7 %
SCF iterations                  ...      227.463 sec (=   3.791 min)  18.4 %
SCF Gradient evaluation         ...       27.452 sec (=   0.458 min)   2.2 %
Geometry relaxation             ...        0.389 sec (=   0.006 min)   0.0 %
Analytical frequency calculation...       40.783 sec (=   0.680 min)   3.3 %
NEB Iterations                  ...      904.982 sec (=  15.083 min)  73.3 %
                             ****ORCA TERMINATED NORMALLY****
TOTAL RUN TIME: 0 days 0 hours 20 minutes 11 seconds 133 msec
