
                                 *****************
                                 * O   R   C   A *
                                 *****************

                                            #,                                       
                                            ###                                      
                                            ####                                     
                                            #####                                    
                                            ######                                   
                                           ########,                                 
                                     ,,################,,,,,                         
                               ,,#################################,,                 
                          ,,##########################################,,             
                       ,#########################################, ''#####,          
                    ,#############################################,,   '####,        
                  ,##################################################,,,,####,       
                ,###########''''           ''''###############################       
              ,#####''   ,,,,##########,,,,          '''####'''          '####       
            ,##' ,,,,###########################,,,                        '##       
           ' ,,###''''                  '''############,,,                           
         ,,##''                                '''############,,,,        ,,,,,,###''
      ,#''                                            '''#######################'''  
     '                                                          ''''####''''         
             ,#######,   #######,   ,#######,      ##                                
            ,#'     '#,  ##    ##  ,#'     '#,    #''#        ######   ,####,        
            ##       ##  ##   ,#'  ##            #'  '#       #        #'  '#        
            ##       ##  #######   ##           ,######,      #####,   #    #        
            '#,     ,#'  ##    ##  '#,     ,#' ,#      #,         ##   #,  ,#        
             '#######'   ##     ##  '#######'  #'      '#     #####' # '####'        



                  #######################################################
                  #                        -***-                        #
                  #          Department of theory and spectroscopy      #
                  #    Directorship and core code : Frank Neese         #
                  #        Max Planck Institute fuer Kohlenforschung    #
                  #                Kaiser Wilhelm Platz 1               #
                  #                 D-45470 Muelheim/Ruhr               #
                  #                      Germany                        #
                  #                                                     #
                  #                  All rights reserved                #
                  #                        -***-                        #
                  #######################################################


                         Program Version 5.0.3 -  RELEASE  -


 With contributions from (in alphabetic order):
   Daniel Aravena         : Magnetic Suceptibility
   Michael Atanasov       : Ab Initio Ligand Field Theory (pilot matlab implementation)
   Alexander A. Auer      : GIAO ZORA, VPT2 properties, NMR spectrum
   Ute Becker             : Parallelization
   Giovanni Bistoni       : ED, misc. LED, open-shell LED, HFLD
   Martin Brehm           : Molecular dynamics
   Dmytro Bykov           : SCF Hessian
   Vijay G. Chilkuri      : MRCI spin determinant printing, contributions to CSF-ICE
   Dipayan Datta          : RHF DLPNO-CCSD density
   Achintya Kumar Dutta   : EOM-CC, STEOM-CC
   Dmitry Ganyushin       : Spin-Orbit,Spin-Spin,Magnetic field MRCI
   Miquel Garcia          : C-PCM and meta-GGA Hessian, CC/C-PCM, Gaussian charge scheme
   Yang Guo               : DLPNO-NEVPT2, F12-NEVPT2, CIM, IAO-localization
   Andreas Hansen         : Spin unrestricted coupled pair/coupled cluster methods
   Benjamin Helmich-Paris : MC-RPA, TRAH-SCF, COSX integrals
   Lee Huntington         : MR-EOM, pCC
   Robert Izsak           : Overlap fitted RIJCOSX, COSX-SCS-MP3, EOM
   Marcus Kettner         : VPT2
   Christian Kollmar      : KDIIS, OOCD, Brueckner-CCSD(T), CCSD density, CASPT2, CASPT2-K
   Simone Kossmann        : Meta GGA functionals, TD-DFT gradient, OOMP2, MP2 Hessian
   Martin Krupicka        : Initial AUTO-CI
   Lucas Lang             : DCDCAS
   Marvin Lechner         : AUTO-CI (C++ implementation), FIC-MRCC
   Dagmar Lenk            : GEPOL surface, SMD
   Dimitrios Liakos       : Extrapolation schemes; Compound Job, initial MDCI parallelization
   Dimitrios Manganas     : Further ROCIS development; embedding schemes
   Dimitrios Pantazis     : SARC Basis sets
   Anastasios Papadopoulos: AUTO-CI, single reference methods and gradients
   Taras Petrenko         : DFT Hessian,TD-DFT gradient, ASA, ECA, R-Raman, ABS, FL, XAS/XES, NRVS
   Peter Pinski           : DLPNO-MP2, DLPNO-MP2 Gradient
   Christoph Reimann      : Effective Core Potentials
   Marius Retegan         : Local ZFS, SOC
   Christoph Riplinger    : Optimizer, TS searches, QM/MM, DLPNO-CCSD(T), (RO)-DLPNO pert. Triples
   Tobias Risthaus        : Range-separated hybrids, TD-DFT gradient, RPA, STAB
   Michael Roemelt        : Original ROCIS implementation
   Masaaki Saitow         : Open-shell DLPNO-CCSD energy and density
   Barbara Sandhoefer     : DKH picture change effects
   Avijit Sen             : IP-ROCIS
   Kantharuban Sivalingam : CASSCF convergence, NEVPT2, FIC-MRCI
   Bernardo de Souza      : ESD, SOC TD-DFT
   Georgi Stoychev        : AutoAux, RI-MP2 NMR, DLPNO-MP2 response
   Willem Van den Heuvel  : Paramagnetic NMR
   Boris Wezisla          : Elementary symmetry handling
   Frank Wennmohs         : Technical directorship


 We gratefully acknowledge several colleagues who have allowed us to
 interface, adapt or use parts of their codes:
   Stefan Grimme, W. Hujo, H. Kruse, P. Pracht,  : VdW corrections, initial TS optimization,
                  C. Bannwarth, S. Ehlert          DFT functionals, gCP, sTDA/sTD-DF
   Ed Valeev, F. Pavosevic, A. Kumar             : LibInt (2-el integral package), F12 methods
   Garnet Chan, S. Sharma, J. Yang, R. Olivares  : DMRG
   Ulf Ekstrom                                   : XCFun DFT Library
   Mihaly Kallay                                 : mrcc  (arbitrary order and MRCC methods)
   Jiri Pittner, Ondrej Demel                    : Mk-CCSD
   Frank Weinhold                                : gennbo (NPA and NBO analysis)
   Christopher J. Cramer and Donald G. Truhlar   : smd solvation model
   Lars Goerigk                                  : TD-DFT with DH, B97 family of functionals
   V. Asgeirsson, H. Jonsson                     : NEB implementation
   FAccTs GmbH                                   : IRC, NEB, NEB-TS, DLPNO-Multilevel, CI-OPT
                                                   MM, QMMM, 2- and 3-layer-ONIOM, Crystal-QMMM,
                                                   LR-CPCM, SF, NACMEs, symmetry and pop. for TD-DFT,
                                                   nearIR, NL-DFT gradient (VV10), updates on ESD,
                                                   ML-optimized integration grids
   S Lehtola, MJT Oliveira, MAL Marques          : LibXC Library
   Liviu Ungur et al                             : ANISO software


 Your calculation uses the libint2 library for the computation of 2-el integrals
 For citations please refer to: http://libint.valeyev.net

 Your ORCA version has been built with support for libXC version: 5.1.0
 For citations please refer to: https://tddft.org/programs/libxc/

 This ORCA versions uses:
   CBLAS   interface :  Fast vector & matrix operations
   LAPACKE interface :  Fast linear algebra routines
   SCALAPACK package :  Parallel linear algebra routines
   Shared memory     :  Shared parallel matrices
   BLAS/LAPACK       :  OpenBLAS 0.3.15  USE64BITINT DYNAMIC_ARCH NO_AFFINITY Zen SINGLE_THREADED
        Core in use  :  Zen
   Copyright (c) 2011-2014, The OpenBLAS Project




***************************************
The coordinates will be read from file: propan2ol2.xyz
***************************************


Your calculation utilizes the atom-pairwise dispersion correction
with the Becke-Johnson damping scheme (D3BJ)
Cite in your paper:
S.Grimme, S.Ehrlich, L.Goerigk, J Comput Chem, (2011), 32, 1456–1465 
S.Grimme, J.Antony, S.Ehrlich and H.Krieg, J.Chem.Phys., 132, (2010), 154104 
   

================================================================================

----- Orbital basis set information -----
Your calculation utilizes the basis: def2-TZVP
   F. Weigend and R. Ahlrichs, Phys. Chem. Chem. Phys. 7, 3297 (2005).

----- AuxJ basis set information -----
Your calculation utilizes the auxiliary basis: def2/J
   F. Weigend, Phys. Chem. Chem. Phys. 8, 1057 (2006).

================================================================================
                                        WARNINGS
                       Please study these warnings very carefully!
================================================================================



WARNING: Found flag for RIJCOSX approximation but no HF exchange needed!
  ===> : RIJCOSX  will be disabled and Split-RI-J is turned on

WARNING: The environment variable RSH_COMMAND is not set!
  ===> : All Displacements for the Numerical Hessian or Gradient calculation
         will be started on localhost

WARNING: Geometry Optimization
  ===> : Switching off AutoStart
         For restart on a previous wavefunction, please use MOREAD

INFO   : the flag for use of the SHARK integral package has been found!

================================================================================
                                       INPUT FILE
================================================================================
NAME = pr.inp
|  1> !BLYP D3BJ def2-TZVP def2/J RIJCOSX Opt NumFreq xyzfile
|  2> %geom
|  3> NumHess true
|  4> end
|  5> 
|  6> %Freq
|  7> Temp 298.15
|  8> end
|  9> 
| 10> %pal
| 11> nprocs 6
| 12> end
| 13> 
| 14> *xyzfile 0 1 propan2ol2.xyz
| 15> 
| 16>                          ****END OF INPUT****
================================================================================

                       *****************************
                       * Geometry Optimization Run *
                       *****************************

Geometry optimization settings:
Update method            Update   .... BFGS
Choice of coordinates    CoordSys .... Z-matrix Internals
Initial Hessian          InHess   .... Almoef's Model

Convergence Tolerances:
Energy Change            TolE     ....  5.0000e-06 Eh
Max. Gradient            TolMAXG  ....  3.0000e-04 Eh/bohr
RMS Gradient             TolRMSG  ....  1.0000e-04 Eh/bohr
Max. Displacement        TolMAXD  ....  4.0000e-03 bohr
RMS Displacement         TolRMSD  ....  2.0000e-03 bohr
Strict Convergence                ....  False
------------------------------------------------------------------------------
                        ORCA OPTIMIZATION COORDINATE SETUP
------------------------------------------------------------------------------

The optimization will be done in new redundant internal coordinates
Making redundant internal coordinates   ...  (new redundants) done
Evaluating the initial hessian          ...  (Almloef) done
Evaluating the coordinates              ...  done
Calculating the B-matrix                .... done
Calculating the G-matrix                .... done
Diagonalizing the G-matrix              .... done
The first mode is                       ....   10
The number of degrees of freedom        ....   24

    -----------------------------------------------------------------
                    Redundant Internal Coordinates


    -----------------------------------------------------------------
         Definition                    Initial Value    Approx d2E/dq
    -----------------------------------------------------------------
      1. B(C   2,O   0)                  1.3336         0.688418   
      2. B(C   2,C   1)                  1.4936         0.426962   
      3. B(C   3,C   2)                  1.4021         0.597651   
      4. B(H   4,C   1)                  1.0971         0.350801   
      5. B(H   5,C   1)                  1.0956         0.352758   
      6. B(H   6,C   1)                  1.0993         0.347981   
      7. B(H   7,C   3)                  1.1001         0.346965   
      8. B(H   8,C   3)                  1.0881         0.362630   
      9. B(H   9,O   0)                  0.9666         0.507510   
     10. A(C   2,O   0,H   9)           90.0946         0.375282   
     11. A(H   5,C   1,H   6)          109.3430         0.288350   
     12. A(H   4,C   1,H   6)          106.6499         0.288099   
     13. A(C   2,C   1,H   5)          113.0122         0.330414   
     14. A(H   4,C   1,H   5)          109.7335         0.288714   
     15. A(C   2,C   1,H   6)          109.1428         0.329670   
     16. A(C   2,C   1,H   4)          108.7578         0.330110   
     17. A(C   1,C   2,C   3)          130.6487         0.403504   
     18. A(O   0,C   2,C   3)          109.6128         0.436532   
     19. A(O   0,C   2,C   1)          119.7156         0.411059   
     20. A(H   7,C   3,H   8)          114.4487         0.289467   
     21. A(C   2,C   3,H   8)          121.3212         0.351140   
     22. A(C   2,C   3,H   7)          113.8093         0.348533   
     23. D(C   1,C   2,O   0,H   9)    168.2808         0.035378   
     24. D(O   0,C   2,C   1,H   6)    104.2454         0.013468   
     25. D(C   3,C   2,O   0,H   9)    -10.1589         0.035378   
     26. D(C   3,C   2,C   1,H   4)     38.2965         0.013468   
     27. D(O   0,C   2,C   1,H   4)   -139.7662         0.013468   
     28. D(C   3,C   2,C   1,H   5)    160.4138         0.013468   
     29. D(C   3,C   2,C   1,H   6)    -77.6919         0.013468   
     30. D(O   0,C   2,C   1,H   5)    -17.6489         0.013468   
     31. D(H   8,C   3,C   2,C   1)    -21.1623         0.024613   
     32. D(H   8,C   3,C   2,O   0)    157.0515         0.024613   
     33. D(H   7,C   3,C   2,C   1)    121.7826         0.024613   
     34. D(H   7,C   3,C   2,O   0)    -60.0035         0.024613   
    -----------------------------------------------------------------

Number of atoms                         .... 10
Number of degrees of freedom            .... 34

         *************************************************************
         *                GEOMETRY OPTIMIZATION CYCLE   1            *
         *************************************************************
---------------------------------
CARTESIAN COORDINATES (ANGSTROEM)
---------------------------------
  O     -0.501380   -1.120050    0.492550
  C      1.470680    0.234720   -0.017160
  C     -0.006780    0.059280    0.114330
  C     -1.054620    0.973540   -0.064610
  H      1.744990    1.222030    0.374820
  H      2.042190   -0.541750    0.503250
  H      1.740500    0.232840   -1.082850
  H     -1.785330    0.667730   -0.828020
  H     -0.884660    2.046800   -0.008260
  H     -1.369510   -0.715730    0.623630

----------------------------
CARTESIAN COORDINATES (A.U.)
----------------------------
  NO LB      ZA    FRAG     MASS         X           Y           Z
   0 O     8.0000    0    15.999   -0.947471   -2.116588    0.930785
   1 C     6.0000    0    12.011    2.779182    0.443557   -0.032428
   2 C     6.0000    0    12.011   -0.012812    0.112023    0.216052
   3 C     6.0000    0    12.011   -1.992943    1.839724   -0.122095
   4 H     1.0000    0     1.008    3.297553    2.309302    0.708307
   5 H     1.0000    0     1.008    3.859180   -1.023759    0.951005
   6 H     1.0000    0     1.008    3.289068    0.440004   -2.046290
   7 H     1.0000    0     1.008   -3.373785    1.261827   -1.564731
   8 H     1.0000    0     1.008   -1.671765    3.867891   -0.015609
   9 H     1.0000    0     1.008   -2.587999   -1.352534    1.178490

--------------------------------
INTERNAL COORDINATES (ANGSTROEM)
--------------------------------
 O      0   0   0     0.000000000000     0.00000000     0.00000000
 C      1   0   0     2.446267908591     0.00000000     0.00000000
 C      1   2   0     1.333603680746    32.02474906     0.00000000
 C      3   1   2     1.402091129991   109.61276907   181.56030129
 H      2   1   3     1.097121384624   128.71855826    51.61681109
 H      2   1   3     1.095607552502    85.93170718   163.75407853
 H      2   1   3     1.099318672133   113.50975699   273.09431629
 H      4   3   1     1.100114397824   113.80930403   299.99648993
 H      4   3   1     1.088094091382   121.32120972   157.05153075
 H      1   2   3     0.966595223297   121.37453450   346.23737635

---------------------------
INTERNAL COORDINATES (A.U.)
---------------------------
 O      0   0   0     0.000000000000     0.00000000     0.00000000
 C      1   0   0     4.622776397436     0.00000000     0.00000000
 C      1   2   0     2.520145727800    32.02474906     0.00000000
 C      3   1   2     2.649568250484   109.61276907   181.56030129
 H      2   1   3     2.073258952608   128.71855826    51.61681109
 H      2   1   3     2.070398224485    85.93170718   163.75407853
 H      2   1   3     2.077411224237   113.50975699   273.09431629
 H      4   3   1     2.078914927871   113.80930403   299.99648993
 H      4   3   1     2.056199840649   121.32120972   157.05153075
 H      1   2   3     1.826600254387   121.37453450   346.23737635

---------------------
BASIS SET INFORMATION
---------------------
There are 3 groups of distinct atoms

 Group   1 Type O   : 11s6p2d1f contracted to 5s3p2d1f pattern {62111/411/11/1}
 Group   2 Type C   : 11s6p2d1f contracted to 5s3p2d1f pattern {62111/411/11/1}
 Group   3 Type H   : 5s1p contracted to 3s1p pattern {311/1}

Atom   0O    basis set group =>   1
Atom   1C    basis set group =>   2
Atom   2C    basis set group =>   2
Atom   3C    basis set group =>   2
Atom   4H    basis set group =>   3
Atom   5H    basis set group =>   3
Atom   6H    basis set group =>   3
Atom   7H    basis set group =>   3
Atom   8H    basis set group =>   3
Atom   9H    basis set group =>   3
---------------------------------
AUXILIARY/J BASIS SET INFORMATION
---------------------------------
There are 3 groups of distinct atoms

 Group   1 Type O   : 12s5p4d2f1g contracted to 6s4p3d1f1g pattern {711111/2111/211/2/1}
 Group   2 Type C   : 12s5p4d2f1g contracted to 6s4p3d1f1g pattern {711111/2111/211/2/1}
 Group   3 Type H   : 5s2p1d contracted to 3s1p1d pattern {311/2/1}

Atom   0O    basis set group =>   1
Atom   1C    basis set group =>   2
Atom   2C    basis set group =>   2
Atom   3C    basis set group =>   2
Atom   4H    basis set group =>   3
Atom   5H    basis set group =>   3
Atom   6H    basis set group =>   3
Atom   7H    basis set group =>   3
Atom   8H    basis set group =>   3
Atom   9H    basis set group =>   3


           ************************************************************
           *        Program running with 6 parallel MPI-processes     *
           *              working on a common directory               *
           ************************************************************
------------------------------------------------------------------------------
                           ORCA GTO INTEGRAL CALCULATION
                           -- RI-GTO INTEGRALS CHOSEN --
------------------------------------------------------------------------------
------------------------------------------------------------------------------
                   ___                                                        
                  /   \      - P O W E R E D   B Y -                         
                 /     \                                                     
                 |  |  |   _    _      __       _____    __    __             
                 |  |  |  | |  | |    /  \     |  _  \  |  |  /  |          
                  \  \/   | |  | |   /    \    | | | |  |  | /  /          
                 / \  \   | |__| |  /  /\  \   | |_| |  |  |/  /          
                |  |  |   |  __  | /  /__\  \  |    /   |      \           
                |  |  |   | |  | | |   __   |  |    \   |  |\   \          
                \     /   | |  | | |  |  |  |  | |\  \  |  | \   \       
                 \___/    |_|  |_| |__|  |__|  |_| \__\ |__|  \__/        
                                                                              
                      - O R C A' S   B I G   F R I E N D -                    
                                      &                                       
                       - I N T E G R A L  F E E D E R -                       
                                                                              
 v1 FN, 2020, v2 2021                                                         
------------------------------------------------------------------------------


Reading SHARK input file pr.SHARKINP.tmp ... ok
----------------------
SHARK INTEGRAL PACKAGE
----------------------

Number of atoms                             ...     10
Number of basis functions                   ...    160
Number of shells                            ...     68
Maximum angular momentum                    ...      3
Integral batch strategy                     ... SHARK/LIBINT Hybrid
RI-J (if used) integral strategy            ... SPLIT-RIJ (Revised 2003 algorithm where possible)
Printlevel                                  ...      1
Contraction scheme used                     ... SEGMENTED contraction
Coulomb Range Separation                    ... NOT USED
Exchange Range Separation                   ... NOT USED
Finite Nucleus Model                        ... NOT USED
Auxiliary Coulomb fitting basis             ... AVAILABLE
   # of basis functions in Aux-J            ...    262
   # of shells in Aux-J                     ...     90
   Maximum angular momentum in Aux-J        ...      4
Auxiliary J/K fitting basis                 ... NOT available
Auxiliary Correlation fitting basis         ... NOT available
Auxiliary 'external' fitting basis          ... NOT available
Integral threshold                          ...     2.500000e-11
Primitive cut-off                           ...     2.500000e-12
Primitive pair pre-selection threshold      ...     2.500000e-12

Calculating pre-screening integrals         ... done (  0.0 sec) Dimension = 68
Organizing shell pair data                  ... done (  0.0 sec)
Shell pair information
Total number of shell pairs                 ...      2346
Shell pairs after pre-screening             ...      2299
Total number of primitive shell pairs       ...      6892
Primitive shell pairs kept                  ...      5535
          la=0 lb=0:    703 shell pairs
          la=1 lb=0:    677 shell pairs
          la=1 lb=1:    171 shell pairs
          la=2 lb=0:    302 shell pairs
          la=2 lb=1:    144 shell pairs
          la=2 lb=2:     36 shell pairs
          la=3 lb=0:    152 shell pairs
          la=3 lb=1:     72 shell pairs
          la=3 lb=2:     32 shell pairs
          la=3 lb=3:     10 shell pairs

Calculating one electron integrals          ... done (  0.0 sec)
Calculating RI/J V-Matrix + Cholesky decomp.... done (  0.0 sec)
Calculating Nuclear repulsion               ... done (  0.0 sec) ENN=    120.636240344058 Eh

SHARK setup successfully completed in   0.1 seconds

Maximum memory used throughout the entire GTOINT-calculation: 15.9 MB


           ************************************************************
           *        Program running with 6 parallel MPI-processes     *
           *              working on a common directory               *
           ************************************************************
-------------------------------------------------------------------------------
                                 ORCA SCF
-------------------------------------------------------------------------------

------------
SCF SETTINGS
------------
Hamiltonian:
 Density Functional     Method          .... DFT(GTOs)
 Exchange Functional    Exchange        .... B88
   X-Alpha parameter    XAlpha          ....  0.666667
   Becke's b parameter  XBeta           ....  0.004200
 Correlation Functional Correlation     .... LYP
 Gradients option       PostSCFGGA      .... off
   Density functional embedding theory  .... OFF
   NL short-range parameter             ....  4.000000
 RI-approximation to the Coulomb term is turned on
   Number of AuxJ basis functions       .... 262


General Settings:
 Integral files         IntName         .... pr
 Hartree-Fock type      HFTyp           .... RHF
 Total Charge           Charge          ....    0
 Multiplicity           Mult            ....    1
 Number of Electrons    NEL             ....   32
 Basis Dimension        Dim             ....  160
 Nuclear Repulsion      ENuc            ....    120.6362403441 Eh

Convergence Acceleration:
 DIIS                   CNVDIIS         .... on
   Start iteration      DIISMaxIt       ....    12
   Startup error        DIISStart       ....  0.200000
   # of expansion vecs  DIISMaxEq       ....     5
   Bias factor          DIISBfac        ....   1.050
   Max. coefficient     DIISMaxC        ....  10.000
 Trust-Rad. Augm. Hess. CNVTRAH         .... auto
   Auto Start mean grad. ratio tolernc. ....  1.125000
   Auto Start start iteration           ....    20
   Auto Start num. interpolation iter.  ....    10
   Max. Number of Micro iterations      ....    16
   Max. Number of Macro iterations      .... Maxiter - #DIIS iter
   Number of Davidson start vectors     ....     2
   Converg. threshold I  (grad. norm)   ....   1.000e-05
   Converg. threshold II (energy diff.) ....   1.000e-08
   Grad. Scal. Fac. for Micro threshold ....   0.100
   Minimum threshold for Micro iter.    ....   0.010
   NR start threshold (gradient norm)   ....   0.001
   Initial trust radius                 ....   0.400
   Minimum AH scaling param. (alpha)    ....   1.000
   Maximum AH scaling param. (alpha)    .... 1000.000
   Orbital update algorithm             .... Taylor
   White noise on init. David. guess    .... on
   Maximum white noise                  ....   0.010
   Quad. conv. algorithm                .... NR
 SOSCF                  CNVSOSCF        .... on
   Start iteration      SOSCFMaxIt      ....   150
   Startup grad/error   SOSCFStart      ....  0.003300
 Level Shifting         CNVShift        .... on
   Level shift para.    LevelShift      ....    0.2500
   Turn off err/grad.   ShiftErr        ....    0.0010
 Zerner damping         CNVZerner       .... off
 Static damping         CNVDamp         .... on
   Fraction old density DampFac         ....    0.7000
   Max. Damping (<1)    DampMax         ....    0.9800
   Min. Damping (>=0)   DampMin         ....    0.0000
   Turn off err/grad.   DampErr         ....    0.1000
 Fernandez-Rico         CNVRico         .... off

SCF Procedure:
 Maximum # iterations   MaxIter         ....   125
 SCF integral mode      SCFMode         .... Direct
   Integral package                     .... SHARK and LIBINT hybrid scheme
 Reset frequency        DirectResetFreq ....    20
 Integral Threshold     Thresh          ....  2.500e-11 Eh
 Primitive CutOff       TCut            ....  2.500e-12 Eh

Convergence Tolerance:
 Convergence Check Mode ConvCheckMode   .... Total+1el-Energy
 Convergence forced     ConvForced      .... 0
 Energy Change          TolE            ....  1.000e-08 Eh
 1-El. energy change                    ....  1.000e-05 Eh
 Orbital Gradient       TolG            ....  1.000e-05
 Orbital Rotation angle TolX            ....  1.000e-05
 DIIS Error             TolErr          ....  5.000e-07


Diagonalization of the overlap matrix:
Smallest eigenvalue                        ... 1.979e-04
Time for diagonalization                   ...    0.002 sec
Threshold for overlap eigenvalues          ... 1.000e-08
Number of eigenvalues below threshold      ... 0
Time for construction of square roots      ...    0.002 sec
Total time needed                          ...    0.004 sec

Time for model grid setup =    0.026 sec

------------------------------
INITIAL GUESS: MODEL POTENTIAL
------------------------------
Loading Hartree-Fock densities                     ... done
Calculating cut-offs                               ... done
Initializing the effective Hamiltonian             ... done
Setting up the integral package (SHARK)            ... done
Starting the Coulomb interaction                   ... done (   0.0 sec)
Reading the grid                                   ... done
Mapping shells                                     ... done
Starting the XC term evaluation                    ... done (   0.0 sec)
  promolecular density results
     # of electrons  =     31.995782124
     EX              =    -25.391005612
     EC              =     -1.052958657
     EX+EC           =    -26.443964269
Transforming the Hamiltonian                       ... done (   0.0 sec)
Diagonalizing the Hamiltonian                      ... done (   0.0 sec)
Back transforming the eigenvectors                 ... done (   0.0 sec)
Now organizing SCF variables                       ... done
                      ------------------
                      INITIAL GUESS DONE (   0.1 sec)
                      ------------------
-------------------
DFT GRID GENERATION
-------------------

General Integration Accuracy     IntAcc      ... 4.388
Radial Grid Type                 RadialGrid  ... OptM3 with GC (2021)
Angular Grid (max. ang.)         AngularGrid ... 4 (Lebedev-302)
Angular grid pruning method      GridPruning ... 4 (adaptive)
Weight generation scheme         WeightScheme... Becke
Basis function cutoff            BFCut       ... 1.0000e-11
Integration weight cutoff        WCut        ... 1.0000e-14
Angular grids for H and He will be reduced by one unit
Partially contracted basis set               ... off
Rotationally invariant grid construction     ... off

Total number of grid points                  ...    43762
Total number of batches                      ...      688
Average number of points per batch           ...       63
Average number of grid points per atom       ...     4376
Time for grid setup =    0.155 sec

--------------
SCF ITERATIONS
--------------
ITER       Energy         Delta-E        Max-DP      RMS-DP      [F,P]     Damp
               ***  Starting incremental Fock matrix formation  ***
  0   -192.9099648122   0.000000000000 0.04811910  0.00157366  0.2251730 0.7000
  1   -193.0005581638  -0.090593351552 0.03215915  0.00112068  0.1033204 0.7000
                               ***Turning on DIIS***
  2   -193.0296808069  -0.029122643110 0.04349432  0.00173218  0.0291389 0.0000
  3   -193.0708982492  -0.041217442320 0.02169583  0.00075105  0.0686924 0.0000
  4   -193.0858650887  -0.014966839444 0.00670117  0.00031222  0.0200268 0.0000
  5   -193.0872847949  -0.001419706200 0.00303359  0.00013916  0.0070553 0.0000
                      *** Initiating the SOSCF procedure ***
                           *** Shutting down DIIS ***
                      *** Re-Reading the Fockian *** 
                      *** Removing any level shift *** 
ITER      Energy       Delta-E        Grad      Rot      Max-DP    RMS-DP
  6   -193.08744399  -0.0001591969  0.001201  0.001201  0.001308  0.000065
               *** Restarting incremental Fock matrix formation ***
  7   -193.08746147  -0.0000174792  0.000387  0.001378  0.001111  0.000064
  8   -193.08744854   0.0000129328  0.001409  0.003795  0.001122  0.000041
  9   -193.08746698  -0.0000184458  0.000317  0.001906  0.000580  0.000033
 10   -193.08746673   0.0000002503  0.000169  0.000439  0.000259  0.000012
 11   -193.08746809  -0.0000013586  0.000065  0.000334  0.000149  0.000008
 12   -193.08746800   0.0000000945  0.000094  0.000097  0.000079  0.000004
 13   -193.08746819  -0.0000001918  0.000015  0.000164  0.000057  0.000003
 14   -193.08746819  -0.0000000027  0.000013  0.000079  0.000027  0.000001
                  ***Gradient check signals convergence***
              ***Rediagonalizing the Fockian in SOSCF/NRSCF***

               *****************************************************
               *                     SUCCESS                       *
               *           SCF CONVERGED AFTER  15 CYCLES          *
               *****************************************************


----------------
TOTAL SCF ENERGY
----------------

Total Energy       :         -193.08746820 Eh           -5254.17713 eV

Components:
Nuclear Repulsion  :          120.63624034 Eh            3282.67899 eV
Electronic Energy  :         -313.72370854 Eh           -8536.85611 eV
One Electron Energy:         -499.58872251 Eh          -13594.50027 eV
Two Electron Energy:          185.86501396 Eh            5057.64416 eV

Virial components:
Potential Energy   :         -385.58282849 Eh          -10492.24218 eV
Kinetic Energy     :          192.49536028 Eh            5238.06505 eV
Virial Ratio       :            2.00307596


DFT components:
N(Alpha)           :       16.000026868173 electrons
N(Beta)            :       16.000026868173 electrons
N(Total)           :       32.000053736345 electrons
E(X)               :      -25.962930298164 Eh       
E(C)               :       -1.062751467427 Eh       
E(XC)              :      -27.025681765591 Eh       
DFET-embed. en.    :        0.000000000000 Eh       

---------------
SCF CONVERGENCE
---------------

  Last Energy change         ...   -8.2084e-09  Tolerance :   1.0000e-08
  Last MAX-Density change    ...    1.8591e-06  Tolerance :   1.0000e-07
  Last RMS-Density change    ...    9.9854e-08  Tolerance :   5.0000e-09
  Last Orbital Gradient      ...    5.7143e-07  Tolerance :   1.0000e-05
  Last Orbital Rotation      ...    2.0235e-06  Tolerance :   1.0000e-05

             **** THE GBW FILE WAS UPDATED (pr.gbw) ****
             **** DENSITY pr.scfp WAS UPDATED ****
             **** ENERGY FILE WAS UPDATED (pr.en.tmp) ****
             **** THE GBW FILE WAS UPDATED (pr.gbw) ****
             **** DENSITY pr.scfp WAS UPDATED ****
----------------
ORBITAL ENERGIES
----------------

  NO   OCC          E(Eh)            E(eV) 
   0   2.0000     -18.807442      -511.7765 
   1   2.0000      -9.987966      -271.7864 
   2   2.0000      -9.922492      -270.0047 
   3   2.0000      -9.878384      -268.8045 
   4   2.0000      -0.997569       -27.1452 
   5   2.0000      -0.696247       -18.9458 
   6   2.0000      -0.623994       -16.9797 
   7   2.0000      -0.522931       -14.2297 
   8   2.0000      -0.440807       -11.9950 
   9   2.0000      -0.416318       -11.3286 
  10   2.0000      -0.399632       -10.8746 
  11   2.0000      -0.363110        -9.8807 
  12   2.0000      -0.348701        -9.4886 
  13   2.0000      -0.326051        -8.8723 
  14   2.0000      -0.306137        -8.3304 
  15   2.0000      -0.175090        -4.7644 
  16   0.0000      -0.057245        -1.5577 
  17   0.0000       0.015498         0.4217 
  18   0.0000       0.057278         1.5586 
  19   0.0000       0.074624         2.0306 
  20   0.0000       0.081144         2.2080 
  21   0.0000       0.093417         2.5420 
  22   0.0000       0.100720         2.7407 
  23   0.0000       0.119345         3.2475 
  24   0.0000       0.147264         4.0073 
  25   0.0000       0.176055         4.7907 
  26   0.0000       0.181477         4.9382 
  27   0.0000       0.194668         5.2972 
  28   0.0000       0.214105         5.8261 
  29   0.0000       0.262877         7.1532 
  30   0.0000       0.272743         7.4217 
  31   0.0000       0.283965         7.7271 
  32   0.0000       0.316131         8.6024 
  33   0.0000       0.318941         8.6788 
  34   0.0000       0.361853         9.8465 
  35   0.0000       0.372349        10.1321 
  36   0.0000       0.390502        10.6261 
  37   0.0000       0.405530        11.0350 
  38   0.0000       0.414804        11.2874 
  39   0.0000       0.428608        11.6630 
  40   0.0000       0.451282        12.2800 
  41   0.0000       0.459310        12.4985 
  42   0.0000       0.468365        12.7449 
  43   0.0000       0.485499        13.2111 
  44   0.0000       0.511448        13.9172 
  45   0.0000       0.548720        14.9314 
  46   0.0000       0.598023        16.2730 
  47   0.0000       0.637287        17.3415 
  48   0.0000       0.682635        18.5754 
  49   0.0000       0.738001        20.0820 
  50   0.0000       0.786143        21.3920 
  51   0.0000       0.827621        22.5207 
  52   0.0000       0.832702        22.6590 
  53   0.0000       0.894810        24.3490 
  54   0.0000       0.899947        24.4888 
  55   0.0000       0.929904        25.3040 
  56   0.0000       0.975748        26.5514 
  57   0.0000       0.995200        27.0808 
  58   0.0000       1.063606        28.9422 
  59   0.0000       1.103858        30.0375 
  60   0.0000       1.141844        31.0711 
  61   0.0000       1.165410        31.7124 
  62   0.0000       1.233594        33.5678 
  63   0.0000       1.302260        35.4363 
  64   0.0000       1.345691        36.6181 
  65   0.0000       1.395819        37.9822 
  66   0.0000       1.435459        39.0608 
  67   0.0000       1.443554        39.2811 
  68   0.0000       1.461775        39.7769 
  69   0.0000       1.476920        40.1890 
  70   0.0000       1.484163        40.3861 
  71   0.0000       1.525307        41.5057 
  72   0.0000       1.548713        42.1426 
  73   0.0000       1.614162        43.9236 
  74   0.0000       1.672788        45.5189 
  75   0.0000       1.720019        46.8041 
  76   0.0000       1.746339        47.5203 
  77   0.0000       1.791943        48.7612 
  78   0.0000       1.800818        49.0027 
  79   0.0000       1.824564        49.6489 
  80   0.0000       1.865478        50.7622 
  81   0.0000       1.899363        51.6843 
  82   0.0000       1.966756        53.5182 
  83   0.0000       1.985982        54.0413 
  84   0.0000       1.999554        54.4106 
  85   0.0000       2.033773        55.3418 
  86   0.0000       2.083295        56.6893 
  87   0.0000       2.153566        58.6015 
  88   0.0000       2.185807        59.4788 
  89   0.0000       2.209765        60.1308 
  90   0.0000       2.239514        60.9403 
  91   0.0000       2.265075        61.6358 
  92   0.0000       2.332293        63.4649 
  93   0.0000       2.365649        64.3726 
  94   0.0000       2.413987        65.6879 
  95   0.0000       2.435718        66.2793 
  96   0.0000       2.449405        66.6517 
  97   0.0000       2.492866        67.8343 
  98   0.0000       2.533961        68.9526 
  99   0.0000       2.551490        69.4296 
 100   0.0000       2.578576        70.1666 
 101   0.0000       2.644809        71.9689 
 102   0.0000       2.663663        72.4820 
 103   0.0000       2.710140        73.7467 
 104   0.0000       2.785396        75.7945 
 105   0.0000       2.837601        77.2150 
 106   0.0000       2.849059        77.5268 
 107   0.0000       2.871893        78.1482 
 108   0.0000       2.921344        79.4938 
 109   0.0000       2.975852        80.9771 
 110   0.0000       2.991059        81.3908 
 111   0.0000       3.010073        81.9083 
 112   0.0000       3.058195        83.2177 
 113   0.0000       3.073903        83.6451 
 114   0.0000       3.087659        84.0195 
 115   0.0000       3.121133        84.9304 
 116   0.0000       3.135201        85.3132 
 117   0.0000       3.165269        86.1313 
 118   0.0000       3.216247        87.5185 
 119   0.0000       3.239559        88.1529 
 120   0.0000       3.270964        89.0074 
 121   0.0000       3.295818        89.6838 
 122   0.0000       3.342726        90.9602 
 123   0.0000       3.371962        91.7557 
 124   0.0000       3.472615        94.4947 
 125   0.0000       3.499316        95.2212 
 126   0.0000       3.576912        97.3327 
 127   0.0000       3.589772        97.6827 
 128   0.0000       3.676676       100.0474 
 129   0.0000       3.745151       101.9107 
 130   0.0000       3.786130       103.0258 
 131   0.0000       3.903697       106.2250 
 132   0.0000       3.937396       107.1420 
 133   0.0000       3.988902       108.5435 
 134   0.0000       4.107604       111.7736 
 135   0.0000       4.198206       114.2390 
 136   0.0000       4.216053       114.7246 
 137   0.0000       4.287626       116.6722 
 138   0.0000       4.371936       118.9664 
 139   0.0000       4.423645       120.3735 
 140   0.0000       4.528269       123.2205 
 141   0.0000       4.538204       123.4908 
 142   0.0000       4.652500       126.6010 
 143   0.0000       4.781405       130.1086 
 144   0.0000       5.269457       143.3892 
 145   0.0000       5.284989       143.8119 
 146   0.0000       5.486864       149.3052 
 147   0.0000       5.674186       154.4025 
 148   0.0000       5.796737       157.7372 
 149   0.0000       5.973586       162.5495 
 150   0.0000       6.157458       167.5530 
 151   0.0000       6.313866       171.8090 
 152   0.0000       6.597151       179.5176 
 153   0.0000       6.656239       181.1255 
 154   0.0000       6.853135       186.4833 
 155   0.0000       7.030571       191.3116 
 156   0.0000      21.951860       597.3405 
 157   0.0000      21.996386       598.5521 
 158   0.0000      22.601602       615.0209 
 159   0.0000      43.348535      1179.5736 

                    ********************************
                    * MULLIKEN POPULATION ANALYSIS *
                    ********************************

-----------------------
MULLIKEN ATOMIC CHARGES
-----------------------
   0 O :   -0.321096
   1 C :   -0.310446
   2 C :    0.271251
   3 C :   -0.507709
   4 H :    0.123549
   5 H :    0.116192
   6 H :    0.125821
   7 H :    0.121866
   8 H :    0.082287
   9 H :    0.298286
Sum of atomic charges:    0.0000000

--------------------------------
MULLIKEN REDUCED ORBITAL CHARGES
--------------------------------
  0 O s       :     3.791663  s :     3.791663
      pz      :     1.668827  p :     4.494172
      px      :     1.345597
      py      :     1.479748
      dz2     :     0.004670  d :     0.033686
      dxz     :     0.000766
      dyz     :     0.008057
      dx2y2   :     0.010006
      dxy     :     0.010188
      f0      :     0.000236  f :     0.001575
      f+1     :     0.000257
      f-1     :     0.000290
      f+2     :     0.000162
      f-2     :     0.000125
      f+3     :     0.000110
      f-3     :     0.000394
  1 C s       :     3.298538  s :     3.298538
      pz      :     1.036374  p :     2.974406
      px      :     0.885237
      py      :     1.052795
      dz2     :     0.002842  d :     0.034235
      dxz     :     0.016682
      dyz     :     0.000359
      dx2y2   :     0.004557
      dxy     :     0.009794
      f0      :     0.000985  f :     0.003268
      f+1     :     0.000266
      f-1     :     0.000039
      f+2     :     0.000467
      f-2     :     0.000022
      f+3     :     0.000791
      f-3     :     0.000699
  2 C s       :     3.198518  s :     3.198518
      pz      :     0.844196  p :     2.355320
      px      :     0.824403
      py      :     0.686721
      dz2     :     0.010497  d :     0.158933
      dxz     :     0.031760
      dyz     :     0.034500
      dx2y2   :     0.043318
      dxy     :     0.038858
      f0      :     0.001495  f :     0.015978
      f+1     :     0.001035
      f-1     :     0.001726
      f+2     :     0.001903
      f-2     :     0.002165
      f+3     :     0.002988
      f-3     :     0.004665
  3 C s       :     3.331086  s :     3.331086
      pz      :     1.171425  p :     3.139568
      px      :     0.995564
      py      :     0.972579
      dz2     :     0.003248  d :     0.032774
      dxz     :     0.008013
      dyz     :     0.006448
      dx2y2   :     0.011338
      dxy     :     0.003728
      f0      :     0.000610  f :     0.004281
      f+1     :     0.000571
      f-1     :     0.000364
      f+2     :     0.000276
      f-2     :     0.000622
      f+3     :     0.000854
      f-3     :     0.000985
  4 H s       :     0.855102  s :     0.855102
      pz      :     0.005544  p :     0.021348
      px      :     0.005050
      py      :     0.010754
  5 H s       :     0.862665  s :     0.862665
      pz      :     0.006052  p :     0.021143
      px      :     0.006871
      py      :     0.008220
  6 H s       :     0.852816  s :     0.852816
      pz      :     0.011797  p :     0.021363
      px      :     0.004950
      py      :     0.004616
  7 H s       :     0.854997  s :     0.854997
      pz      :     0.009491  p :     0.023137
      px      :     0.009465
      py      :     0.004180
  8 H s       :     0.894597  s :     0.894597
      pz      :     0.006202  p :     0.023116
      px      :     0.004429
      py      :     0.012485
  9 H s       :     0.649705  s :     0.649705
      pz      :     0.013903  p :     0.052009
      px      :     0.020898
      py      :     0.017208


                     *******************************
                     * LOEWDIN POPULATION ANALYSIS *
                     *******************************

----------------------
LOEWDIN ATOMIC CHARGES
----------------------
   0 O :    0.134887
   1 C :   -0.255987
   2 C :   -0.356245
   3 C :   -0.366991
   4 H :    0.142832
   5 H :    0.127774
   6 H :    0.139748
   7 H :    0.132995
   8 H :    0.109263
   9 H :    0.191723

-------------------------------
LOEWDIN REDUCED ORBITAL CHARGES
-------------------------------
  0 O s       :     3.338947  s :     3.338947
      pz      :     1.580804  p :     4.443474
      px      :     1.321187
      py      :     1.541482
      dz2     :     0.011761  d :     0.076603
      dxz     :     0.003323
      dyz     :     0.014354
      dx2y2   :     0.027143
      dxy     :     0.020022
      f0      :     0.000462  f :     0.006089
      f+1     :     0.000429
      f-1     :     0.000775
      f+2     :     0.000519
      f-2     :     0.000554
      f+3     :     0.000939
      f-3     :     0.002410
  1 C s       :     2.832196  s :     2.832196
      pz      :     1.066589  p :     3.168225
      px      :     1.033317
      py      :     1.068319
      dz2     :     0.044895  d :     0.230674
      dxz     :     0.057221
      dyz     :     0.018553
      dx2y2   :     0.054894
      dxy     :     0.055111
      f0      :     0.004457  f :     0.024892
      f+1     :     0.003238
      f-1     :     0.000410
      f+2     :     0.004100
      f-2     :     0.003287
      f+3     :     0.004988
      f-3     :     0.004411
  2 C s       :     2.774867  s :     2.774867
      pz      :     0.806210  p :     2.767737
      px      :     1.063136
      py      :     0.898391
      dz2     :     0.065587  d :     0.710128
      dxz     :     0.095665
      dyz     :     0.134914
      dx2y2   :     0.223525
      dxy     :     0.190438
      f0      :     0.006552  f :     0.103514
      f+1     :     0.007096
      f-1     :     0.010252
      f+2     :     0.012697
      f-2     :     0.016524
      f+3     :     0.020443
      f-3     :     0.029949
  3 C s       :     2.880820  s :     2.880820
      pz      :     1.117474  p :     3.250348
      px      :     1.087021
      py      :     1.045852
      dz2     :     0.025223  d :     0.210417
      dxz     :     0.027430
      dyz     :     0.020053
      dx2y2   :     0.084865
      dxy     :     0.052847
      f0      :     0.002060  f :     0.025406
      f+1     :     0.002637
      f-1     :     0.003547
      f+2     :     0.001443
      f-2     :     0.003417
      f+3     :     0.006685
      f-3     :     0.005618
  4 H s       :     0.797630  s :     0.797630
      pz      :     0.015999  p :     0.059538
      px      :     0.013095
      py      :     0.030445
  5 H s       :     0.812261  s :     0.812261
      pz      :     0.018033  p :     0.059965
      px      :     0.017680
      py      :     0.024252
  6 H s       :     0.800961  s :     0.800961
      pz      :     0.033262  p :     0.059290
      px      :     0.012856
      py      :     0.013172
  7 H s       :     0.801822  s :     0.801822
      pz      :     0.027335  p :     0.065183
      px      :     0.024251
      py      :     0.013597
  8 H s       :     0.826340  s :     0.826340
      pz      :     0.017033  p :     0.064397
      px      :     0.013835
      py      :     0.033529
  9 H s       :     0.640738  s :     0.640738
      pz      :     0.036085  p :     0.167538
      px      :     0.075199
      py      :     0.056253


                      *****************************
                      * MAYER POPULATION ANALYSIS *
                      *****************************

  NA   - Mulliken gross atomic population
  ZA   - Total nuclear charge
  QA   - Mulliken gross atomic charge
  VA   - Mayer's total valence
  BVA  - Mayer's bonded valence
  FA   - Mayer's free valence

  ATOM       NA         ZA         QA         VA         BVA        FA
  0 O      8.3211     8.0000    -0.3211     2.1134     2.1134    -0.0000
  1 C      6.3104     6.0000    -0.3104     3.8731     3.8731     0.0000
  2 C      5.7287     6.0000     0.2713     3.7300     3.7300    -0.0000
  3 C      6.5077     6.0000    -0.5077     3.7378     3.7378    -0.0000
  4 H      0.8765     1.0000     0.1235     0.9711     0.9711     0.0000
  5 H      0.8838     1.0000     0.1162     0.9757     0.9757     0.0000
  6 H      0.8742     1.0000     0.1258     0.9617     0.9617     0.0000
  7 H      0.8781     1.0000     0.1219     0.9865     0.9865     0.0000
  8 H      0.9177     1.0000     0.0823     0.9894     0.9894    -0.0000
  9 H      0.7017     1.0000     0.2983     0.9747     0.9747    -0.0000

  Mayer bond orders larger than 0.100000
B(  0-O ,  2-C ) :   1.1665 B(  0-O ,  9-H ) :   0.8382 B(  1-C ,  2-C ) :   0.9616 
B(  1-C ,  4-H ) :   0.9599 B(  1-C ,  5-H ) :   0.9708 B(  1-C ,  6-H ) :   0.9452 
B(  2-C ,  3-C ) :   1.6002 B(  3-C ,  7-H ) :   0.9595 B(  3-C ,  8-H ) :   0.9721 


-------
TIMINGS
-------

Total SCF time: 0 days 0 hours 0 min 1 sec 

Total time                  ....       1.777 sec
Sum of individual times     ....       1.700 sec  ( 95.7%)

Fock matrix formation       ....       1.400 sec  ( 78.8%)
  Split-RI-J                ....       0.366 sec  ( 26.1% of F)
  XC integration            ....       1.014 sec  ( 72.4% of F)
    Basis function eval.    ....       0.234 sec  ( 23.0% of XC)
    Density eval.           ....       0.214 sec  ( 21.1% of XC)
    XC-Functional eval.     ....       0.027 sec  (  2.7% of XC)
    XC-Potential eval.      ....       0.286 sec  ( 28.2% of XC)
Diagonalization             ....       0.023 sec  (  1.3%)
Density matrix formation    ....       0.004 sec  (  0.2%)
Population analysis         ....       0.005 sec  (  0.3%)
Initial guess               ....       0.040 sec  (  2.2%)
Orbital Transformation      ....       0.000 sec  (  0.0%)
Orbital Orthonormalization  ....       0.000 sec  (  0.0%)
DIIS solution               ....       0.019 sec  (  1.0%)
SOSCF solution              ....       0.029 sec  (  1.6%)
Grid generation             ....       0.181 sec  ( 10.2%)

Maximum memory used throughout the entire SCF-calculation: 15.9 MB


-------------------------------------------------------------------------------
                          DFT DISPERSION CORRECTION                            
                                                                               
                              DFTD3 V3.1  Rev 1                                
                          USING Becke-Johnson damping                          
-------------------------------------------------------------------------------
The BLYP functional is recognized
Active option DFTDOPT                   ...         4   

molecular C6(AA) [au] = 784.339041 


            DFT-D V3
 parameters
 s6 scaling factor         :     1.0000 
 a1 scaling factor         :     0.4298 
 s8 scaling factor         :     2.6996 
 a2 scaling factor         :     4.2359 
 ad hoc parameters k1-k3   :    16.0000     1.3333    -4.0000 

 Edisp/kcal,au: -7.735688630331  -0.012327603207 
 E6   /kcal   :  -3.183803701 
 E8   /kcal   :  -4.551884930 
 % E8         :  58.842659617 

-------------------------   ----------------
Dispersion correction           -0.012327603
-------------------------   ----------------


-------------------------   --------------------
FINAL SINGLE POINT ENERGY      -193.099795803602
-------------------------   --------------------



           ************************************************************
           *        Program running with 6 parallel MPI-processes     *
           *              working on a common directory               *
           ************************************************************
------------------------------------------------------------------------------
                         ORCA SCF GRADIENT CALCULATION
------------------------------------------------------------------------------

Gradient of the Kohn-Sham DFT energy:
Kohn-Sham wavefunction type      ... RKS
Hartree-Fock exchange scaling    ...    0.000
Number of operators              ...    1
Number of atoms                  ...   10
Basis set dimensions             ...  160
Integral neglect threshold       ... 2.5e-11
Integral primitive cutoff        ... 2.5e-12
SHARK Integral package           ... ON

Nuc. rep. gradient       (SHARK) ... done (  0.0 sec)
HCore & Overlap gradient (SHARK) ... done (  0.0 sec)
RI-J gradient            (SHARK) ... done (  0.1 sec)
Exchange-correlation gradient    ... done
Dispersion correction            ... done

------------------
CARTESIAN GRADIENT
------------------

   1   O   :   -0.018583609    0.036274679    0.007142462
   2   C   :    0.001993202   -0.001557587   -0.005511708
   3   C   :    0.011565015   -0.042961046    0.001780578
   4   C   :   -0.029942272   -0.015451434    0.019262762
   5   H   :   -0.001226936   -0.000330005    0.000028971
   6   H   :    0.000396839   -0.000015181   -0.000709075
   7   H   :   -0.000230317    0.001045742   -0.000443030
   8   H   :    0.009286861    0.002559383   -0.016779351
   9   H   :   -0.004994547   -0.001011713    0.007940742
  10   H   :    0.031735764    0.021447163   -0.012712350

Difference to translation invariance:
           :   -0.0000000000   -0.0000000000   -0.0000000000

Difference to rotation invariance:
           :    0.0000909281    0.0000803033   -0.0000730814

Norm of the cartesian gradient     ...    0.0856366547
RMS gradient                       ...    0.0156350425
MAX gradient                       ...    0.0429610461

-------
TIMINGS
-------

Total SCF gradient time            ...        0.642 sec

One electron gradient       ....       0.017 sec  (  2.7%)
RI-J Coulomb gradient       ....       0.129 sec  ( 20.1%)
XC gradient                 ....       0.330 sec  ( 51.4%)

Maximum memory used throughout the entire SCFGRAD-calculation: 28.1 MB
------------------------------------------------------------------------------
                         ORCA GEOMETRY RELAXATION STEP
------------------------------------------------------------------------------

Reading the OPT-File                    .... done
Getting information on internals        .... done
Copying old internal coords+grads       .... done
Making the new internal coordinates     .... (new redundants).... done
Validating the new internal coordinates .... (new redundants).... done
Calculating the B-matrix                .... done
Calculating the G,G- and P matrices     .... done
Transforming gradient to internals      .... done
Projecting the internal gradient        .... done
Number of atoms                         ....  10
Number of internal coordinates          ....  34
Current Energy                          ....  -193.099795804 Eh
Current gradient norm                   ....     0.085636655 Eh/bohr
Maximum allowed component of the step   ....  0.300
Current trust radius                    ....  0.300
Evaluating the initial hessian          ....  (Almloef) done
Projecting the Hessian                  .... done
Forming the augmented Hessian           .... done
Diagonalizing the augmented Hessian     .... done
Last element of RFO vector              ....  0.898209537
Lowest eigenvalues of augmented Hessian:
 -0.037332255  0.013484039  0.019953913  0.033993139  0.035380489
Length of the computed step             ....  0.489381963
Warning: the length of the step is outside the trust region - taking restricted step instead
The input lambda is                     ....    -0.037332
   iter:   1  x=   -0.061637  g=    6.150918 f(x)=     0.149495
   iter:   2  x=   -0.084583  g=    2.407791 f(x)=     0.055249
   iter:   3  x=   -0.096440  g=    1.269194 f(x)=     0.015050
   iter:   4  x=   -0.098402  g=    0.968612 f(x)=     0.001900
   iter:   5  x=   -0.098444  g=    0.929189 f(x)=     0.000039
   iter:   6  x=   -0.098444  g=    0.928370 f(x)=     0.000000
   iter:   7  x=   -0.098444  g=    0.928370 f(x)=     0.000000
The output lambda is                    ....    -0.098444 (7 iterations)
The final length of the internal step   ....  0.300000000
Converting the step to cartesian space:
 Initial RMS(Int)=    0.0514495755
Transforming coordinates:
 Iter   0:  RMS(Cart)=    0.1032019380 RMS(Int)=    0.0527595621
 Iter   1:  RMS(Cart)=    0.0069792907 RMS(Int)=    0.0061835350
 Iter   2:  RMS(Cart)=    0.0011257768 RMS(Int)=    0.0008138012
 Iter   3:  RMS(Cart)=    0.0002024722 RMS(Int)=    0.0001747792
 Iter   4:  RMS(Cart)=    0.0000350560 RMS(Int)=    0.0000294533
 Iter   5:  RMS(Cart)=    0.0000066558 RMS(Int)=    0.0000051458
 Iter   6:  RMS(Cart)=    0.0000011573 RMS(Int)=    0.0000010956
 Iter   7:  RMS(Cart)=    0.0000002247 RMS(Int)=    0.0000001510
 Iter   8:  RMS(Cart)=    0.0000000390 RMS(Int)=    0.0000000400
done
Storing new coordinates                 .... done

                                .--------------------.
          ----------------------|Geometry convergence|-------------------------
          Item                value                   Tolerance       Converged
          ---------------------------------------------------------------------
          RMS gradient        0.0198356026            0.0001000000      NO
          MAX gradient        0.0626640372            0.0003000000      NO
          RMS step            0.0514495755            0.0020000000      NO
          MAX step            0.1461001572            0.0040000000      NO
          ........................................................
          Max(Bonds)      0.0387      Max(Angles)    7.58
          Max(Dihed)        8.37      Max(Improp)    0.00
          ---------------------------------------------------------------------

The optimization has not yet converged - more geometry cycles are needed


    ---------------------------------------------------------------------------
                         Redundant Internal Coordinates
                            (Angstroem and degrees)

        Definition                    Value    dE/dq     Step     New-Value
    ----------------------------------------------------------------------------
     1. B(C   2,O   0)                1.3336 -0.057502  0.0387    1.3723   
     2. B(C   2,C   1)                1.4936  0.001407 -0.0014    1.4922   
     3. B(C   3,C   2)                1.4021  0.008770 -0.0067    1.3954   
     4. B(H   4,C   1)                1.0971 -0.000591  0.0007    1.0978   
     5. B(H   5,C   1)                1.0956 -0.000119  0.0001    1.0957   
     6. B(H   6,C   1)                1.0993  0.000369 -0.0004    1.0989   
     7. B(H   7,C   3)                1.1001  0.004768 -0.0057    1.0944   
     8. B(H   8,C   3)                1.0881 -0.001369  0.0016    1.0897   
     9. B(H   9,O   0)                0.9666 -0.021256  0.0186    0.9852   
    10. A(C   2,O   0,H   9)           90.09 -0.062664    7.58     97.67   
    11. A(H   5,C   1,H   6)          109.34  0.000026   -0.05    109.29   
    12. A(H   4,C   1,H   6)          106.65  0.000196    0.04    106.69   
    13. A(C   2,C   1,H   5)          113.01  0.001417   -0.22    112.80   
    14. A(H   4,C   1,H   5)          109.73  0.000532   -0.09    109.64   
    15. A(C   2,C   1,H   6)          109.14 -0.000303    0.05    109.19   
    16. A(C   2,C   1,H   4)          108.76 -0.001946    0.28    109.04   
    17. A(C   1,C   2,C   3)          130.65  0.025165   -2.74    127.90   
    18. A(O   0,C   2,C   3)          109.61 -0.055657    6.08    115.70   
    19. A(O   0,C   2,C   1)          119.72  0.030403   -3.29    116.42   
    20. A(H   7,C   3,H   8)          114.45 -0.000261    0.58    115.02   
    21. A(C   2,C   3,H   8)          121.32  0.006468   -0.46    120.87   
    22. A(C   2,C   3,H   7)          113.81 -0.011711    1.89    115.70   
    23. D(C   1,C   2,O   0,H   9)    168.28 -0.001255    0.74    169.02   
    24. D(O   0,C   2,C   1,H   6)    104.25  0.003516   -1.46    102.78   
    25. D(C   3,C   2,O   0,H   9)    -10.16  0.001460   -0.83    -10.99   
    26. D(C   3,C   2,C   1,H   4)     38.30 -0.002263    0.87     39.17   
    27. D(O   0,C   2,C   1,H   4)   -139.77  0.002511   -1.23   -141.00   
    28. D(C   3,C   2,C   1,H   5)    160.41 -0.002028    0.82    161.23   
    29. D(C   3,C   2,C   1,H   6)    -77.69 -0.001257    0.64    -77.05   
    30. D(O   0,C   2,C   1,H   5)    -17.65  0.002745   -1.28    -18.93   
    31. D(H   8,C   3,C   2,C   1)    -21.16 -0.006129    3.14    -18.02   
    32. D(H   8,C   3,C   2,O   0)    157.05 -0.009370    4.95    162.00   
    33. D(H   7,C   3,C   2,C   1)    121.78 -0.015355    6.56    128.34   
    34. D(H   7,C   3,C   2,O   0)    -60.00 -0.018596    8.37    -51.63   
    ----------------------------------------------------------------------------

         *************************************************************
         *                GEOMETRY OPTIMIZATION CYCLE   2            *
         *************************************************************
---------------------------------
CARTESIAN COORDINATES (ANGSTROEM)
---------------------------------
  O     -0.465611   -1.166389    0.487570
  C      1.451019    0.251547   -0.010167
  C     -0.025761    0.079720    0.117595
  C     -1.021303    1.034025   -0.095489
  H      1.731823    1.238648    0.379685
  H      2.015993   -0.526438    0.515386
  H      1.724915    0.242906   -1.074332
  H     -1.827064    0.735270   -0.773215
  H     -0.783178    2.097320   -0.103947
  H     -1.404752   -0.927199    0.664593

----------------------------
CARTESIAN COORDINATES (A.U.)
----------------------------
  NO LB      ZA    FRAG     MASS         X           Y           Z
   0 O     8.0000    0    15.999   -0.879877   -2.204156    0.921374
   1 C     6.0000    0    12.011    2.742029    0.475355   -0.019212
   2 C     6.0000    0    12.011   -0.048681    0.150649    0.222222
   3 C     6.0000    0    12.011   -1.929983    1.954025   -0.180448
   4 H     1.0000    0     1.008    3.272671    2.340705    0.717501
   5 H     1.0000    0     1.008    3.809674   -0.994824    0.973939
   6 H     1.0000    0     1.008    3.259616    0.459026   -2.030193
   7 H     1.0000    0     1.008   -3.452651    1.389459   -1.461165
   8 H     1.0000    0     1.008   -1.479992    3.963361   -0.196431
   9 H     1.0000    0     1.008   -2.654597   -1.752153    1.255900

--------------------------------
INTERNAL COORDINATES (ANGSTROEM)
--------------------------------
 O      0   0   0     0.000000000000     0.00000000     0.00000000
 C      1   0   0     2.435519626438     0.00000000     0.00000000
 C      1   2   0     1.372274670576    33.27980762     0.00000000
 C      3   1   2     1.395423798345   115.69000649   179.91434648
 H      2   1   3     1.097817210343   130.70698709    51.75506119
 H      2   1   3     1.095747108040    83.93698211   162.52428033
 H      2   1   3     1.098881772460   112.92199002   270.93377877
 H      4   3   1     1.094449170410   115.66605286   308.41301879
 H      4   3   1     1.089665600074   120.83783300   162.03025108
 H      1   2   3     0.985157736885   130.20781832   345.74275464

---------------------------
INTERNAL COORDINATES (A.U.)
---------------------------
 O      0   0   0     0.000000000000     0.00000000     0.00000000
 C      1   0   0     4.602465087757     0.00000000     0.00000000
 C      1   2   0     2.593223307905    33.27980762     0.00000000
 C      3   1   2     2.636968819628   115.69000649   179.91434648
 H      2   1   3     2.074573872654   130.70698709    51.75506119
 H      2   1   3     2.070661946233    83.93698211   162.52428033
 H      2   1   3     2.076585603508   112.92199002   270.93377877
 H      4   3   1     2.068209199573   115.66605286   308.41301879
 H      4   3   1     2.059169561695   120.83783300   162.03025108
 H      1   2   3     1.861678321427   130.20781832   345.74275464



           ************************************************************
           *        Program running with 6 parallel MPI-processes     *
           *              working on a common directory               *
           ************************************************************
------------------------------------------------------------------------------
                   ___                                                        
                  /   \      - P O W E R E D   B Y -                         
                 /     \                                                     
                 |  |  |   _    _      __       _____    __    __             
                 |  |  |  | |  | |    /  \     |  _  \  |  |  /  |          
                  \  \/   | |  | |   /    \    | | | |  |  | /  /          
                 / \  \   | |__| |  /  /\  \   | |_| |  |  |/  /          
                |  |  |   |  __  | /  /__\  \  |    /   |      \           
                |  |  |   | |  | | |   __   |  |    \   |  |\   \          
                \     /   | |  | | |  |  |  |  | |\  \  |  | \   \       
                 \___/    |_|  |_| |__|  |__|  |_| \__\ |__|  \__/        
                                                                              
                      - O R C A' S   B I G   F R I E N D -                    
                                      &                                       
                       - I N T E G R A L  F E E D E R -                       
                                                                              
 v1 FN, 2020, v2 2021                                                         
------------------------------------------------------------------------------


Reading SHARK input file pr.SHARKINP.tmp ... ok
----------------------
SHARK INTEGRAL PACKAGE
----------------------

Number of atoms                             ...     10
Number of basis functions                   ...    160
Number of shells                            ...     68
Maximum angular momentum                    ...      3
Integral batch strategy                     ... SHARK/LIBINT Hybrid
RI-J (if used) integral strategy            ... SPLIT-RIJ (Revised 2003 algorithm where possible)
Printlevel                                  ...      1
Contraction scheme used                     ... SEGMENTED contraction
Coulomb Range Separation                    ... NOT USED
Exchange Range Separation                   ... NOT USED
Finite Nucleus Model                        ... NOT USED
Auxiliary Coulomb fitting basis             ... AVAILABLE
   # of basis functions in Aux-J            ...    262
   # of shells in Aux-J                     ...     90
   Maximum angular momentum in Aux-J        ...      4
Auxiliary J/K fitting basis                 ... NOT available
Auxiliary Correlation fitting basis         ... NOT available
Auxiliary 'external' fitting basis          ... NOT available
Integral threshold                          ...     2.500000e-11
Primitive cut-off                           ...     2.500000e-12
Primitive pair pre-selection threshold      ...     2.500000e-12

Calculating pre-screening integrals         ... done (  0.0 sec) Dimension = 68
Organizing shell pair data                  ... done (  0.0 sec)
Shell pair information
Total number of shell pairs                 ...      2346
Shell pairs after pre-screening             ...      2297
Total number of primitive shell pairs       ...      6892
Primitive shell pairs kept                  ...      5517
          la=0 lb=0:    702 shell pairs
          la=1 lb=0:    677 shell pairs
          la=1 lb=1:    171 shell pairs
          la=2 lb=0:    301 shell pairs
          la=2 lb=1:    144 shell pairs
          la=2 lb=2:     36 shell pairs
          la=3 lb=0:    152 shell pairs
          la=3 lb=1:     72 shell pairs
          la=3 lb=2:     32 shell pairs
          la=3 lb=3:     10 shell pairs

Calculating one electron integrals          ... done (  0.0 sec)
Calculating RI/J V-Matrix + Cholesky decomp.... done (  0.0 sec)
Calculating Nuclear repulsion               ... done (  0.0 sec) ENN=    119.271724811339 Eh

SHARK setup successfully completed in   0.1 seconds

Maximum memory used throughout the entire GTOINT-calculation: 15.9 MB


           ************************************************************
           *        Program running with 6 parallel MPI-processes     *
           *              working on a common directory               *
           ************************************************************

Diagonalization of the overlap matrix:
Smallest eigenvalue                        ... 1.984e-04
Time for diagonalization                   ...    0.002 sec
Threshold for overlap eigenvalues          ... 1.000e-08
Number of eigenvalues below threshold      ... 0
Time for construction of square roots      ...    0.002 sec
Total time needed                          ...    0.005 sec

-------------------
DFT GRID GENERATION
-------------------

General Integration Accuracy     IntAcc      ... 4.388
Radial Grid Type                 RadialGrid  ... OptM3 with GC (2021)
Angular Grid (max. ang.)         AngularGrid ... 4 (Lebedev-302)
Angular grid pruning method      GridPruning ... 4 (adaptive)
Weight generation scheme         WeightScheme... Becke
Basis function cutoff            BFCut       ... 1.0000e-11
Integration weight cutoff        WCut        ... 1.0000e-14
Angular grids for H and He will be reduced by one unit
Partially contracted basis set               ... off
Rotationally invariant grid construction     ... off

Total number of grid points                  ...    43778
Total number of batches                      ...      689
Average number of points per batch           ...       63
Average number of grid points per atom       ...     4378
Time for grid setup =    0.165 sec

--------------
SCF ITERATIONS
--------------
ITER       Energy         Delta-E        Max-DP      RMS-DP      [F,P]     Damp
               ***  Starting incremental Fock matrix formation  ***
  0   -193.0997150951   0.000000000000 0.00743773  0.00026194  0.0483391 0.7000
  1   -193.1023122172  -0.002597122076 0.00621605  0.00025072  0.0363098 0.7000
                               ***Turning on DIIS***
  2   -193.1042993419  -0.001987124708 0.01521149  0.00067916  0.0260341 0.0000
                      *** Initiating the SOSCF procedure ***
                           *** Shutting down DIIS ***
                      *** Re-Reading the Fockian *** 
                      *** Removing any level shift *** 
ITER      Energy       Delta-E        Grad      Rot      Max-DP    RMS-DP
  3   -193.10892303  -0.0046236844  0.001199  0.001199  0.002084  0.000104
               *** Restarting incremental Fock matrix formation ***
  4   -193.10894855  -0.0000255233  0.002007  0.015244  0.005938  0.000179
  5   -193.10869144   0.0002571058  0.006293  0.011121  0.004404  0.000125
  6   -193.10898194  -0.0002905011  0.000117  0.000349  0.000816  0.000028
  7   -193.10898123   0.0000007103  0.000184  0.000212  0.000364  0.000014
  8   -193.10898282  -0.0000015902  0.000027  0.000080  0.000123  0.000005
  9   -193.10898278   0.0000000424  0.000055  0.000065  0.000060  0.000002
 10   -193.10898285  -0.0000000702  0.000010  0.000022  0.000073  0.000002
 11   -193.10898285   0.0000000020  0.000008  0.000012  0.000043  0.000001
                  ***Gradient check signals convergence***
              ***Rediagonalizing the Fockian in SOSCF/NRSCF***

               *****************************************************
               *                     SUCCESS                       *
               *           SCF CONVERGED AFTER  12 CYCLES          *
               *****************************************************

Total Energy       :         -193.10898286 Eh           -5254.76257 eV
  Last Energy change         ...   -5.4865e-09  Tolerance :   1.0000e-08
  Last MAX-Density change    ...    2.7294e-06  Tolerance :   1.0000e-07
             **** THE GBW FILE WAS UPDATED (pr.gbw) ****
             **** DENSITY pr.scfp WAS UPDATED ****
             **** ENERGY FILE WAS UPDATED (pr.en.tmp) ****
             **** THE GBW FILE WAS UPDATED (pr.gbw) ****
             **** DENSITY pr.scfp WAS UPDATED ****
Total SCF time: 0 days 0 hours 0 min 1 sec 

Maximum memory used throughout the entire SCF-calculation: 15.6 MB


-------------------------------------------------------------------------------
                          DFT DISPERSION CORRECTION                            
                                                                               
                              DFTD3 V3.1  Rev 1                                
                          USING Becke-Johnson damping                          
-------------------------------------------------------------------------------
-------------------------   ----------------
Dispersion correction           -0.012299645
-------------------------   ----------------


-------------------------   --------------------
FINAL SINGLE POINT ENERGY      -193.121282500899
-------------------------   --------------------



           ************************************************************
           *        Program running with 6 parallel MPI-processes     *
           *              working on a common directory               *
           ************************************************************
------------------------------------------------------------------------------
                         ORCA SCF GRADIENT CALCULATION
------------------------------------------------------------------------------

Gradient of the Kohn-Sham DFT energy:
Kohn-Sham wavefunction type      ... RKS
Hartree-Fock exchange scaling    ...    0.000
Number of operators              ...    1
Number of atoms                  ...   10
Basis set dimensions             ...  160
Integral neglect threshold       ... 2.5e-11
Integral primitive cutoff        ... 2.5e-12
SHARK Integral package           ... ON

Nuc. rep. gradient       (SHARK) ... done (  0.0 sec)
HCore & Overlap gradient (SHARK) ... done (  0.0 sec)
RI-J gradient            (SHARK) ... done (  0.1 sec)
Exchange-correlation gradient    ... done
Dispersion correction            ... done

------------------
CARTESIAN GRADIENT
------------------

   1   O   :    0.002083339    0.000553505    0.009422018
   2   C   :   -0.000635275   -0.002371015   -0.007010241
   3   C   :    0.025056544   -0.025562326   -0.002613659
   4   C   :   -0.030633724    0.006547515    0.013551477
   5   H   :   -0.001345349    0.000122701    0.000121635
   6   H   :    0.000119683   -0.000323816   -0.000670050
   7   H   :   -0.000434320    0.001405056   -0.000346026
   8   H   :    0.011002905    0.001904198   -0.016778171
   9   H   :   -0.004582463    0.001733125    0.006256049
  10   H   :   -0.000631341    0.015991057   -0.001933032

Difference to translation invariance:
           :   -0.0000000000   -0.0000000000    0.0000000000

Difference to rotation invariance:
           :    0.0000740176    0.0001110523   -0.0000086390

Norm of the cartesian gradient     ...    0.0577537780
RMS gradient                       ...    0.0105443490
MAX gradient                       ...    0.0306337236

-------
TIMINGS
-------

Total SCF gradient time            ...        0.637 sec

One electron gradient       ....       0.020 sec  (  3.2%)
RI-J Coulomb gradient       ....       0.126 sec  ( 19.8%)
XC gradient                 ....       0.322 sec  ( 50.5%)

Maximum memory used throughout the entire SCFGRAD-calculation: 28.1 MB
------------------------------------------------------------------------------
                         ORCA GEOMETRY RELAXATION STEP
------------------------------------------------------------------------------

Reading the OPT-File                    .... done
Getting information on internals        .... done
Copying old internal coords+grads       .... done
Making the new internal coordinates     .... (new redundants).... done
Validating the new internal coordinates .... (new redundants).... done
Calculating the B-matrix                .... done
Calculating the G,G- and P matrices     .... done
Transforming gradient to internals      .... done
Projecting the internal gradient        .... done
Number of atoms                         ....  10
Number of internal coordinates          ....  34
Current Energy                          ....  -193.121282501 Eh
Current gradient norm                   ....     0.057753778 Eh/bohr
Maximum allowed component of the step   ....  0.300
Current trust radius                    ....  0.300
Updating the Hessian (BFGS)             .... done
Forming the augmented Hessian           .... done
Diagonalizing the augmented Hessian     .... done
Last element of RFO vector              ....  0.841586347
Lowest eigenvalues of augmented Hessian:
 -0.027212436  0.013511254  0.019981117  0.035089117  0.036941416
Length of the computed step             ....  0.641791065
Warning: the length of the step is outside the trust region - taking restricted step instead
The input lambda is                     ....    -0.027212
   iter:   1  x=   -0.047904  g=   15.556697 f(x)=     0.321896
   iter:   2  x=   -0.070573  g=    5.585090 f(x)=     0.126607
   iter:   3  x=   -0.087221  g=    2.490022 f(x)=     0.041453
   iter:   4  x=   -0.092744  g=    1.556884 f(x)=     0.008599
   iter:   5  x=   -0.093169  g=    1.354693 f(x)=     0.000576
   iter:   6  x=   -0.093172  g=    1.340657 f(x)=     0.000003
   iter:   7  x=   -0.093172  g=    1.340584 f(x)=     0.000000
   iter:   8  x=   -0.093172  g=    1.340584 f(x)=    -0.000000
The output lambda is                    ....    -0.093172 (8 iterations)
The final length of the internal step   ....  0.300000000
Converting the step to cartesian space:
 Initial RMS(Int)=    0.0514495755
Transforming coordinates:
 Iter   0:  RMS(Cart)=    0.0831925895 RMS(Int)=    0.0524049672
 Iter   1:  RMS(Cart)=    0.0056335260 RMS(Int)=    0.0052240342
 Iter   2:  RMS(Cart)=    0.0008795662 RMS(Int)=    0.0007006108
 Iter   3:  RMS(Cart)=    0.0001363177 RMS(Int)=    0.0001298067
 Iter   4:  RMS(Cart)=    0.0000222139 RMS(Int)=    0.0000183597
 Iter   5:  RMS(Cart)=    0.0000034977 RMS(Int)=    0.0000033354
[...]
     18       0.000000   0.000000   0.000000   0.000000   0.000000   0.000000
     19       0.000000   0.000000   0.000000   0.000000   0.000000   0.000000
     20       0.000000   0.000000   0.000000   0.000000   0.000000   0.000000
     21       0.000000   0.000000   0.000000   0.000000   0.000000   0.000000
     22       0.000000   0.000000   0.000000   0.000000   0.000000   0.000000
     23       0.000000   0.000000   0.000000   0.000000   0.000000   0.000000
     24       0.000000   0.000000   0.000000   0.000000   0.000000   0.000000
     25       0.000000   0.000000   0.000000   0.000000   0.000000   0.000000
     26       0.000000   0.000000   0.000000   0.000000   0.000000   0.000000
     27       0.000000   0.000000   0.000000   0.000000   0.000000   0.000000
     28       0.000000   0.000000   0.000000   0.000000   0.000000   0.000000
     29       0.000000   0.000000   0.000000   0.000000   0.000000   0.000000
                  6          7          8          9         10         11    
      0       0.000643  -0.120123   0.003841  -0.192211  -0.003822   0.000270
      1       0.005616  -0.114951  -0.007483   0.080948   0.010693   0.007844
      2       0.046203   0.014075  -0.050732  -0.013263   0.078989   0.069345
      3      -0.000289  -0.035950  -0.003534   0.169552   0.003460  -0.000539
      4      -0.001307   0.177958   0.001931   0.051229   0.003687  -0.001152
      5      -0.007416  -0.020742   0.023821  -0.005680   0.021264  -0.010210
      6      -0.000021  -0.000651  -0.003076   0.131935   0.002073  -0.000220
      7       0.001992  -0.135689  -0.005469  -0.003226  -0.033729  -0.011381
      8       0.012986   0.016336  -0.043223   0.004633  -0.288754  -0.097671
      9      -0.000529   0.170315   0.001058  -0.035780  -0.000582   0.000369
     10      -0.005383   0.008222   0.002567  -0.166824   0.005466   0.000767
     11      -0.046517  -0.001740  -0.008621   0.017489   0.076107   0.004515
     12       0.003806  -0.425472  -0.001771   0.057966   0.002583  -0.000662
     13       0.062104   0.278906   0.008409   0.082365   0.034898  -0.005535
     14       0.543332  -0.028685   0.083547  -0.011674   0.284918  -0.048069
     15       0.064695   0.153896  -0.066308   0.229538  -0.391911  -0.009728
     16      -0.525156   0.358781  -0.042504   0.107428  -0.057808   0.000958
     17      -0.252129  -0.037226   0.034580  -0.011784   0.186681  -0.006296
     18      -0.067945   0.151998   0.058014   0.216618   0.402662   0.008984
     19       0.450453   0.363707   0.046132   0.109554   0.103729  -0.002100
     20      -0.364875  -0.052659   0.024204  -0.021723   0.165834  -0.005984
     21      -0.000502   0.121937  -0.000636   0.027213   0.001572  -0.000482
     22      -0.010443   0.292178   0.001484  -0.560655   0.062716  -0.058854
     23      -0.084981  -0.034017  -0.096863   0.042273   0.628143  -0.499853
     24      -0.000893   0.441666   0.010224  -0.427299  -0.008651   0.002191
     25      -0.007438  -0.076083   0.015576  -0.047993  -0.017457   0.098218
     26      -0.065393   0.006114   0.124838   0.016777  -0.139366   0.835809
     27       0.000636  -0.130726   0.005658  -0.219329  -0.004573   0.000061
     28      -0.002679   0.005377   0.101250   0.440324  -0.002963  -0.016982
     29      -0.021391  -0.003695   0.968839   0.000719  -0.099462  -0.144576
                 12         13         14         15         16         17    
      0       0.000432   0.064386   0.020426   0.025596   0.000071   0.036300
      1       0.001622   0.210850   0.139053   0.075647  -0.000764  -0.098683
      2       0.009545  -0.024930  -0.016065  -0.008647  -0.007845   0.011312
      3      -0.001303  -0.317278   0.061293   0.048633  -0.000256  -0.046845
      4      -0.001180  -0.047161   0.005616  -0.150504  -0.019243  -0.069465
      5      -0.008797   0.006130  -0.000792   0.018175  -0.158940   0.008453
      6      -0.000038   0.102613  -0.049629  -0.049024   0.000122   0.120471
      7      -0.007355  -0.061209  -0.070317  -0.040253   0.015714   0.075704
      8      -0.060570   0.007558   0.008090   0.004223   0.135276  -0.009321
      9       0.001171   0.191762  -0.094593  -0.030670  -0.000369  -0.085483
     10       0.019721  -0.148308  -0.143805   0.054206  -0.001654   0.013707
     11       0.169558   0.015354   0.017217  -0.006216  -0.016265  -0.001396
     12      -0.001700  -0.480046   0.111417  -0.661318  -0.001174  -0.316215
     13       0.000877  -0.014551  -0.009026   0.042837   0.037588   0.002253
     14       0.007934   0.003471   0.000378  -0.005231   0.323676   0.000012
     15      -0.041156  -0.296647   0.050129   0.369369  -0.609789   0.024586
     16       0.002341  -0.019058  -0.015881   0.283302   0.053877   0.091147
     17       0.011621   0.008818  -0.003683   0.034419   0.177046   0.036064
     18       0.038880  -0.295199   0.049378   0.364607   0.616210   0.023746
     19      -0.000026  -0.021063  -0.014729   0.270597  -0.008574   0.081271
     20       0.011760  -0.001683   0.006609  -0.103641   0.180841  -0.056641
     21      -0.000224   0.246115  -0.207877  -0.021123  -0.000691  -0.144569
     22      -0.093309  -0.436023   0.561045  -0.024539  -0.016412   0.335163
     23      -0.783065   0.059001  -0.066878   0.003631  -0.144493  -0.039176
     24      -0.001185   0.015993   0.635189  -0.139280   0.000225   0.029102
     25      -0.068150  -0.108011  -0.369397   0.087957   0.011071  -0.009557
     26      -0.580250   0.016196   0.042460  -0.010440   0.092629   0.000931
     27       0.000559   0.060766   0.025722   0.051588   0.000074  -0.051525
     28      -0.000768   0.310578   0.125433  -0.233731  -0.003678   0.828345
     29      -0.013339  -0.036176  -0.016020   0.025687  -0.029395  -0.093764
                 18         19         20         21         22         23    
      0       0.071022  -0.003008   0.023915   0.000070  -0.002836   0.030163
      1       0.028811  -0.014929  -0.020996  -0.000602   0.007347  -0.055085
      2      -0.003512   0.001678   0.002370  -0.001726  -0.000902   0.006337
      3       0.000941  -0.131471   0.068974  -0.000786  -0.014386   0.063723
      4       0.040399  -0.028698  -0.024930   0.007380  -0.046979  -0.023001
      5      -0.004634   0.003340   0.002787   0.051528   0.007161   0.002474
      6      -0.145509   0.000408  -0.107637  -0.000066   0.003236  -0.344650
      7      -0.221881   0.061891   0.021261   0.003669  -0.014304   0.316568
      8       0.026158  -0.007526  -0.002269   0.021290   0.002329  -0.036270
      9       0.028925  -0.010754  -0.009233  -0.000952   0.032796   0.252817
     10       0.080545  -0.003153   0.041334   0.000740  -0.033330  -0.261304
     11      -0.009591   0.000410  -0.004887  -0.000668   0.003839   0.029941
     12       0.303218   0.474958  -0.017783  -0.008816   0.406255  -0.237474
     13      -0.041833  -0.169532   0.006829  -0.080167  -0.140139   0.066618
     14       0.003902   0.025514  -0.001212  -0.709547  -0.007245  -0.005812
     15       0.171048   0.482907  -0.196325  -0.268803  -0.175351   0.182282
     16      -0.084778   0.172759   0.185221  -0.420718   0.467028  -0.098524
     17      -0.121666  -0.191011   0.198712  -0.014090   0.275777  -0.094291
     18       0.171656   0.475664  -0.196523   0.286852  -0.160129   0.182050
     19      -0.054697   0.202103   0.135877   0.383926   0.415707  -0.075469
     20       0.137127   0.145840  -0.235064  -0.085215  -0.380932   0.113796
     21       0.013667   0.039063   0.112599   0.001171  -0.023120   0.185276
     22       0.006471  -0.225844  -0.612026  -0.009627   0.255136   0.366423
     23      -0.000158   0.026614   0.071916  -0.001591  -0.030105  -0.043432
     24      -0.406605   0.268392   0.502694   0.010043  -0.263387  -0.433765
     25       0.213747  -0.096648  -0.132293  -0.004036   0.060205  -0.092287
     26      -0.023641   0.010566   0.014392  -0.009837  -0.006889   0.011802
     27      -0.002283  -0.003398  -0.013519  -0.000069   0.002807  -0.022155
     28       0.706545  -0.003844   0.300833  -0.000290  -0.047167   0.323124
     29      -0.082008   0.000854  -0.034299  -0.012038   0.004889  -0.036707
                 24         25         26         27         28         29    
      0       0.000005  -0.000001   0.000160   0.000227  -0.000127   0.061382
      1      -0.000035   0.000009   0.000607   0.000111  -0.000973   0.006704
      2      -0.000005   0.000085  -0.000080  -0.000008   0.000110  -0.000839
      3      -0.048898  -0.000226  -0.004275  -0.001595  -0.000016  -0.000738
      4       0.017452  -0.010449  -0.089786  -0.005236   0.002386   0.000332
      5      -0.001914  -0.090678   0.010353   0.000631  -0.000286  -0.000036
      6      -0.000350  -0.000007   0.002067  -0.003950   0.003012   0.002921
      7       0.000977  -0.000123  -0.002748   0.006213   0.000927  -0.000364
      8      -0.000104  -0.001078   0.000324  -0.000715  -0.000110   0.000033
      9      -0.000536   0.000013  -0.002399   0.062327   0.059071  -0.001053
     10       0.000135  -0.000022   0.004587  -0.031573   0.076498  -0.000779
     11      -0.000023  -0.000080  -0.000533   0.003611  -0.009088   0.000112
     12       0.081601  -0.000361   0.229427   0.013180  -0.008231   0.001031
     13       0.352629  -0.003520   0.895628   0.058447  -0.025872  -0.000488
     14      -0.041275  -0.019994  -0.104926  -0.006969   0.003112   0.000052
     15       0.251545   0.285218  -0.098768   0.000581   0.001607  -0.000464
     16      -0.220284  -0.252233   0.067242  -0.000219  -0.002109  -0.000810
     17       0.566125   0.592376  -0.214799  -0.003414   0.003993   0.000266
     18       0.248588  -0.282073  -0.098348   0.000683   0.001566  -0.000456
     19      -0.344462   0.381620   0.115871   0.000500  -0.002964  -0.000826
     20      -0.501497   0.519783   0.195396   0.003175  -0.003415  -0.000100
     21       0.013872  -0.000183   0.037419  -0.851651  -0.474818   0.003907
     22       0.003292  -0.000014   0.008788  -0.153257  -0.071940   0.002697
     23      -0.000395  -0.000066  -0.001082   0.019443   0.009335  -0.000446
     24      -0.003462   0.000052  -0.017147   0.161082  -0.255132   0.001610
     25      -0.011150   0.000119  -0.049771   0.461758  -0.827286  -0.001169
     26       0.001332  -0.000255   0.005886  -0.054583   0.097579   0.000074
     27       0.000977  -0.000008  -0.000225  -0.004071  -0.002554  -0.993356
     28      -0.000673   0.000105   0.000549  -0.004409  -0.005386  -0.096134
     29       0.000122   0.001099  -0.000082   0.000459   0.000654   0.012174


-----------
IR SPECTRUM
-----------

 Mode   freq       eps      Int      T**2         TX        TY        TZ
       cm**-1   L/(mol*cm) km/mol    a.u.
----------------------------------------------------------------------------
  6:    178.47   0.000236    1.19  0.000413  (-0.000174 -0.002030 -0.020226)
  7:    403.18   0.000241    1.22  0.000186  (-0.005999  0.012127 -0.001811)
  8:    429.00   0.018506   93.52  0.013462  (-0.002501  0.013356  0.115227)
  9:    470.58   0.003288   16.62  0.002180  ( 0.031434  0.034525 -0.000635)
 10:    488.02   0.000134    0.68  0.000086  ( 0.000911  0.001771  0.009042)
 11:    698.93   0.000135    0.68  0.000060  (-0.000186 -0.001254 -0.007660)
 12:    768.50   0.013872   70.10  0.005633  ( 0.000216 -0.008493 -0.074570)
 13:    833.43   0.001358    6.86  0.000509  ( 0.004051 -0.021976  0.003029)
 14:    950.00   0.005320   26.88  0.001748  (-0.002001 -0.041501  0.004604)
 15:    993.75   0.006434   32.51  0.002020  (-0.014888 -0.042144  0.004750)
 16:   1045.28   0.000000    0.00  0.000000  (-0.000195 -0.000004 -0.000311)
 17:   1165.22   0.025636  129.55  0.006866  ( 0.020667  0.079725 -0.009089)
 18:   1317.14   0.002404   12.15  0.000570  (-0.003244 -0.023463  0.002914)
 19:   1378.84   0.003101   15.67  0.000702  ( 0.013906  0.022421 -0.002378)
 20:   1417.05   0.001422    7.19  0.000313  (-0.004147  0.017109 -0.001790)
 21:   1439.10   0.001722    8.70  0.000373  ( 0.000471 -0.002721 -0.019125)
 22:   1456.45   0.001815    9.17  0.000389  (-0.006230  0.018497 -0.002806)
 23:   1654.60   0.026733  135.10  0.005042  (-0.034096  0.061880 -0.007091)
 24:   2963.96   0.004233   21.39  0.000446  (-0.020191  0.006126 -0.000669)
 25:   3005.64   0.002776   14.03  0.000288  (-0.000044 -0.001923 -0.016867)
 26:   3059.54   0.003244   16.39  0.000331  (-0.001275 -0.018024  0.002085)
 27:   3075.00   0.001107    5.60  0.000112  ( 0.010129  0.003105 -0.000362)
 28:   3167.23   0.002012   10.17  0.000198  ( 0.010302  0.009527 -0.001155)
 29:   3631.78   0.003353   16.95  0.000288  (-0.012134 -0.011794  0.001349)

* The epsilon (eps) is given for a Dirac delta lineshape.
** The dipole moment derivative (T) already includes vibrational overlap.

The first frequency considered to be a vibration is 6
The total number of vibrations considered is 24


--------------------------
THERMOCHEMISTRY AT 298.15K
--------------------------

Temperature         ... 298.15 K
Pressure            ... 1.00 atm
Total Mass          ... 58.08 AMU

Throughout the following assumptions are being made:
  (1) The electronic state is orbitally nondegenerate
  (2) There are no thermally accessible electronically excited states
  (3) Hindered rotations indicated by low frequency modes are not
      treated as such but are treated as vibrations and this may
      cause some error
  (4) All equations used are the standard statistical mechanics
      equations for an ideal gas
  (5) All vibrations are strictly harmonic

freq.     178.47  E(vib)   ...       0.37 
freq.     403.18  E(vib)   ...       0.19 
freq.     429.00  E(vib)   ...       0.18 
freq.     470.58  E(vib)   ...       0.15 
freq.     488.02  E(vib)   ...       0.15 
freq.     698.93  E(vib)   ...       0.07 
freq.     768.50  E(vib)   ...       0.06 
freq.     833.43  E(vib)   ...       0.04 
freq.     950.00  E(vib)   ...       0.03 
freq.     993.75  E(vib)   ...       0.02 
freq.    1045.28  E(vib)   ...       0.02 
freq.    1165.22  E(vib)   ...       0.01 
freq.    1317.14  E(vib)   ...       0.01 
freq.    1378.84  E(vib)   ...       0.01 
freq.    1417.05  E(vib)   ...       0.00 
freq.    1439.10  E(vib)   ...       0.00 
freq.    1456.45  E(vib)   ...       0.00 
freq.    1654.60  E(vib)   ...       0.00 
freq.    2963.96  E(vib)   ...       0.00 
freq.    3005.64  E(vib)   ...       0.00 
freq.    3059.54  E(vib)   ...       0.00 
freq.    3075.00  E(vib)   ...       0.00 
freq.    3167.23  E(vib)   ...       0.00 
freq.    3631.78  E(vib)   ...       0.00 

------------
INNER ENERGY
------------

The inner energy is: U= E(el) + E(ZPE) + E(vib) + E(rot) + E(trans)
    E(el)   - is the total energy from the electronic structure calculation
              = E(kin-el) + E(nuc-el) + E(el-el) + E(nuc-nuc)
    E(ZPE)  - the the zero temperature vibrational energy from the frequency calculation
    E(vib)  - the the finite temperature correction to E(ZPE) due to population
              of excited vibrational states
    E(rot)  - is the rotational thermal energy
    E(trans)- is the translational thermal energy

Summary of contributions to the inner energy U:
Electronic energy                ...   -193.15098680 Eh
Zero point energy                ...      0.08199276 Eh      51.45 kcal/mol
Thermal vibrational correction   ...      0.00210699 Eh       1.32 kcal/mol
Thermal rotational correction    ...      0.00141627 Eh       0.89 kcal/mol
Thermal translational correction ...      0.00141627 Eh       0.89 kcal/mol
-----------------------------------------------------------------------
Total thermal energy                   -193.06405450 Eh


Summary of corrections to the electronic energy:
(perhaps to be used in another calculation)
Total thermal correction                  0.00493954 Eh       3.10 kcal/mol
Non-thermal (ZPE) correction              0.08199276 Eh      51.45 kcal/mol
-----------------------------------------------------------------------
Total correction                          0.08693230 Eh      54.55 kcal/mol


--------
ENTHALPY
--------

The enthalpy is H = U + kB*T
                kB is Boltzmann's constant
Total free energy                 ...   -193.06405450 Eh 
Thermal Enthalpy correction       ...      0.00094421 Eh       0.59 kcal/mol
-----------------------------------------------------------------------
Total Enthalpy                    ...   -193.06311030 Eh


Note: Only C1 symmetry has been detected, increase convergence thresholds 
      if your molecule has a higher symmetry. Symmetry factor of 1.0 is   
      used for the rotational entropy correction. 
 

Note: Rotational entropy computed according to Herzberg 
Infrared and Raman Spectra, Chapter V,1, Van Nostrand Reinhold, 1945 
Point Group:  C1, Symmetry Number:   1  
Rotational constants in cm-1:     0.332185     0.299575     0.162306 

Vibrational entropy computed according to the QRRHO of S. Grimme
Chem.Eur.J. 2012 18 9955


-------
ENTROPY
-------

The entropy contributions are T*S = T*(S(el)+S(vib)+S(rot)+S(trans))
     S(el)   - electronic entropy
     S(vib)  - vibrational entropy
     S(rot)  - rotational entropy
     S(trans)- translational entropy
The entropies will be listed as multiplied by the temperature to get
units of energy

Electronic entropy                ...      0.00000000 Eh      0.00 kcal/mol
Vibrational entropy               ...      0.00320233 Eh      2.01 kcal/mol
Rotational entropy                ...      0.01145853 Eh      7.19 kcal/mol
Translational entropy             ...      0.01810171 Eh     11.36 kcal/mol
-----------------------------------------------------------------------
Final entropy term                ...      0.03276257 Eh     20.56 kcal/mol

In case the symmetry of your molecule has not been determined correctly
or in case you have a reason to use a different symmetry number we print 
out the resulting rotational entropy values for sn=1,12 :
 --------------------------------------------------------
|  sn= 1 | S(rot)=       0.01145853 Eh      7.19 kcal/mol|
|  sn= 2 | S(rot)=       0.01080407 Eh      6.78 kcal/mol|
|  sn= 3 | S(rot)=       0.01042124 Eh      6.54 kcal/mol|
|  sn= 4 | S(rot)=       0.01014961 Eh      6.37 kcal/mol|
|  sn= 5 | S(rot)=       0.00993893 Eh      6.24 kcal/mol|
|  sn= 6 | S(rot)=       0.00976678 Eh      6.13 kcal/mol|
|  sn= 7 | S(rot)=       0.00962123 Eh      6.04 kcal/mol|
|  sn= 8 | S(rot)=       0.00949516 Eh      5.96 kcal/mol|
|  sn= 9 | S(rot)=       0.00938395 Eh      5.89 kcal/mol|
|  sn=10 | S(rot)=       0.00928447 Eh      5.83 kcal/mol|
|  sn=11 | S(rot)=       0.00919448 Eh      5.77 kcal/mol|
|  sn=12 | S(rot)=       0.00911232 Eh      5.72 kcal/mol|
 --------------------------------------------------------


-------------------
GIBBS FREE ENERGY
-------------------

The Gibbs free energy is G = H - T*S

Total enthalpy                    ...   -193.06311030 Eh 
Total entropy correction          ...     -0.03276257 Eh    -20.56 kcal/mol
-----------------------------------------------------------------------
Final Gibbs free energy         ...   -193.09587286 Eh

For completeness - the Gibbs free energy minus the electronic energy
G-E(el)                           ...      0.05511394 Eh     34.58 kcal/mol



Timings for individual modules:

Sum of individual times         ...      127.389 sec (=   2.123 min)
GTO integral calculation        ...        7.073 sec (=   0.118 min)   5.6 %
SCF iterations                  ...       25.758 sec (=   0.429 min)  20.2 %
SCF Gradient evaluation         ...       15.868 sec (=   0.264 min)  12.5 %
Geometry relaxation             ...        0.149 sec (=   0.002 min)   0.1 %
Numerical frequency calculation ...       78.541 sec (=   1.309 min)  61.7 %
                             ****ORCA TERMINATED NORMALLY****
TOTAL RUN TIME: 0 days 0 hours 2 minutes 10 seconds 371 msec
