
                                 *****************
                                 * O   R   C   A *
                                 *****************

                                            #,                                       
                                            ###                                      
                                            ####                                     
                                            #####                                    
                                            ######                                   
                                           ########,                                 
                                     ,,################,,,,,                         
                               ,,#################################,,                 
                          ,,##########################################,,             
                       ,#########################################, ''#####,          
                    ,#############################################,,   '####,        
                  ,##################################################,,,,####,       
                ,###########''''           ''''###############################       
              ,#####''   ,,,,##########,,,,          '''####'''          '####       
            ,##' ,,,,###########################,,,                        '##       
           ' ,,###''''                  '''############,,,                           
         ,,##''                                '''############,,,,        ,,,,,,###''
      ,#''                                            '''#######################'''  
     '                                                          ''''####''''         
             ,#######,   #######,   ,#######,      ##                                
            ,#'     '#,  ##    ##  ,#'     '#,    #''#        ######   ,####,        
            ##       ##  ##   ,#'  ##            #'  '#       #        #'  '#        
            ##       ##  #######   ##           ,######,      #####,   #    #        
            '#,     ,#'  ##    ##  '#,     ,#' ,#      #,         ##   #,  ,#        
             '#######'   ##     ##  '#######'  #'      '#     #####' # '####'        



                  #######################################################
                  #                        -***-                        #
                  #          Department of theory and spectroscopy      #
                  #    Directorship and core code : Frank Neese         #
                  #        Max Planck Institute fuer Kohlenforschung    #
                  #                Kaiser Wilhelm Platz 1               #
                  #                 D-45470 Muelheim/Ruhr               #
                  #                      Germany                        #
                  #                                                     #
                  #                  All rights reserved                #
                  #                        -***-                        #
                  #######################################################


                         Program Version 5.0.3 -  RELEASE  -


 With contributions from (in alphabetic order):
   Daniel Aravena         : Magnetic Suceptibility
   Michael Atanasov       : Ab Initio Ligand Field Theory (pilot matlab implementation)
   Alexander A. Auer      : GIAO ZORA, VPT2 properties, NMR spectrum
   Ute Becker             : Parallelization
   Giovanni Bistoni       : ED, misc. LED, open-shell LED, HFLD
   Martin Brehm           : Molecular dynamics
   Dmytro Bykov           : SCF Hessian
   Vijay G. Chilkuri      : MRCI spin determinant printing, contributions to CSF-ICE
   Dipayan Datta          : RHF DLPNO-CCSD density
   Achintya Kumar Dutta   : EOM-CC, STEOM-CC
   Dmitry Ganyushin       : Spin-Orbit,Spin-Spin,Magnetic field MRCI
   Miquel Garcia          : C-PCM and meta-GGA Hessian, CC/C-PCM, Gaussian charge scheme
   Yang Guo               : DLPNO-NEVPT2, F12-NEVPT2, CIM, IAO-localization
   Andreas Hansen         : Spin unrestricted coupled pair/coupled cluster methods
   Benjamin Helmich-Paris : MC-RPA, TRAH-SCF, COSX integrals
   Lee Huntington         : MR-EOM, pCC
   Robert Izsak           : Overlap fitted RIJCOSX, COSX-SCS-MP3, EOM
   Marcus Kettner         : VPT2
   Christian Kollmar      : KDIIS, OOCD, Brueckner-CCSD(T), CCSD density, CASPT2, CASPT2-K
   Simone Kossmann        : Meta GGA functionals, TD-DFT gradient, OOMP2, MP2 Hessian
   Martin Krupicka        : Initial AUTO-CI
   Lucas Lang             : DCDCAS
   Marvin Lechner         : AUTO-CI (C++ implementation), FIC-MRCC
   Dagmar Lenk            : GEPOL surface, SMD
   Dimitrios Liakos       : Extrapolation schemes; Compound Job, initial MDCI parallelization
   Dimitrios Manganas     : Further ROCIS development; embedding schemes
   Dimitrios Pantazis     : SARC Basis sets
   Anastasios Papadopoulos: AUTO-CI, single reference methods and gradients
   Taras Petrenko         : DFT Hessian,TD-DFT gradient, ASA, ECA, R-Raman, ABS, FL, XAS/XES, NRVS
   Peter Pinski           : DLPNO-MP2, DLPNO-MP2 Gradient
   Christoph Reimann      : Effective Core Potentials
   Marius Retegan         : Local ZFS, SOC
   Christoph Riplinger    : Optimizer, TS searches, QM/MM, DLPNO-CCSD(T), (RO)-DLPNO pert. Triples
   Tobias Risthaus        : Range-separated hybrids, TD-DFT gradient, RPA, STAB
   Michael Roemelt        : Original ROCIS implementation
   Masaaki Saitow         : Open-shell DLPNO-CCSD energy and density
   Barbara Sandhoefer     : DKH picture change effects
   Avijit Sen             : IP-ROCIS
   Kantharuban Sivalingam : CASSCF convergence, NEVPT2, FIC-MRCI
   Bernardo de Souza      : ESD, SOC TD-DFT
   Georgi Stoychev        : AutoAux, RI-MP2 NMR, DLPNO-MP2 response
   Willem Van den Heuvel  : Paramagnetic NMR
   Boris Wezisla          : Elementary symmetry handling
   Frank Wennmohs         : Technical directorship


 We gratefully acknowledge several colleagues who have allowed us to
 interface, adapt or use parts of their codes:
   Stefan Grimme, W. Hujo, H. Kruse, P. Pracht,  : VdW corrections, initial TS optimization,
                  C. Bannwarth, S. Ehlert          DFT functionals, gCP, sTDA/sTD-DF
   Ed Valeev, F. Pavosevic, A. Kumar             : LibInt (2-el integral package), F12 methods
   Garnet Chan, S. Sharma, J. Yang, R. Olivares  : DMRG
   Ulf Ekstrom                                   : XCFun DFT Library
   Mihaly Kallay                                 : mrcc  (arbitrary order and MRCC methods)
   Jiri Pittner, Ondrej Demel                    : Mk-CCSD
   Frank Weinhold                                : gennbo (NPA and NBO analysis)
   Christopher J. Cramer and Donald G. Truhlar   : smd solvation model
   Lars Goerigk                                  : TD-DFT with DH, B97 family of functionals
   V. Asgeirsson, H. Jonsson                     : NEB implementation
   FAccTs GmbH                                   : IRC, NEB, NEB-TS, DLPNO-Multilevel, CI-OPT
                                                   MM, QMMM, 2- and 3-layer-ONIOM, Crystal-QMMM,
                                                   LR-CPCM, SF, NACMEs, symmetry and pop. for TD-DFT,
                                                   nearIR, NL-DFT gradient (VV10), updates on ESD,
                                                   ML-optimized integration grids
   S Lehtola, MJT Oliveira, MAL Marques          : LibXC Library
   Liviu Ungur et al                             : ANISO software


 Your calculation uses the libint2 library for the computation of 2-el integrals
 For citations please refer to: http://libint.valeyev.net

 Your ORCA version has been built with support for libXC version: 5.1.0
 For citations please refer to: https://tddft.org/programs/libxc/

 This ORCA versions uses:
   CBLAS   interface :  Fast vector & matrix operations
   LAPACKE interface :  Fast linear algebra routines
   SCALAPACK package :  Parallel linear algebra routines
   Shared memory     :  Shared parallel matrices
   BLAS/LAPACK       :  OpenBLAS 0.3.15  USE64BITINT DYNAMIC_ARCH NO_AFFINITY Zen SINGLE_THREADED
        Core in use  :  Zen
   Copyright (c) 2011-2014, The OpenBLAS Project




***************************************
The coordinates will be read from file: ts1.xyz
***************************************


Your calculation utilizes the atom-pairwise dispersion correction
with the Becke-Johnson damping scheme (D3BJ)
Cite in your paper:
S.Grimme, S.Ehrlich, L.Goerigk, J Comput Chem, (2011), 32, 1456–1465 
S.Grimme, J.Antony, S.Ehrlich and H.Krieg, J.Chem.Phys., 132, (2010), 154104 
   

================================================================================

----- Orbital basis set information -----
Your calculation utilizes the basis: def2-TZVP
   F. Weigend and R. Ahlrichs, Phys. Chem. Chem. Phys. 7, 3297 (2005).

----- AuxJ basis set information -----
Your calculation utilizes the auxiliary basis: def2/J
   F. Weigend, Phys. Chem. Chem. Phys. 8, 1057 (2006).

================================================================================
                                        WARNINGS
                       Please study these warnings very carefully!
================================================================================

WARNING: Old DensityContainer found on disk!
         Will remove this file - 
         If you want to keep old densities, please start your calculation with a different basename. 



WARNING: Found flag for RIJCOSX approximation but no HF exchange needed!
  ===> : RIJCOSX  will be disabled and Split-RI-J is turned on

WARNING: The environment variable RSH_COMMAND is not set!
  ===> : All Displacements for the Numerical Hessian or Gradient calculation
         will be started on localhost

WARNING: Geometry Optimization
  ===> : Switching off AutoStart
         For restart on a previous wavefunction, please use MOREAD

INFO   : the flag for use of the SHARK integral package has been found!

================================================================================
                                       INPUT FILE
================================================================================
NAME = ts.inp
|  1> !BLYP D3BJ def2-TZVP def2/J RIJCOSX OptTS NumFreq xyzfile
|  2> %geom
|  3> NumHess true
|  4> Calc_hess true
|  5> TS_Mode {B 3 9}
|  6> end
|  7> end
|  8> 
|  9> %Freq
| 10> Temp 298.15
| 11> end
| 12> 
| 13> %pal
| 14> nprocs 6
| 15> end
| 16> 
| 17> *xyzfile 0 1 ts1.xyz
| 18> 
| 19>                          ****END OF INPUT****
================================================================================

                       *****************************
                       * Geometry Optimization Run *
                       *****************************

Geometry optimization settings:
Update method            Update   .... Bofill
Choice of coordinates    CoordSys .... Z-matrix Internals
Initial Hessian          InHess   .... Almoef's Model

Convergence Tolerances:
Energy Change            TolE     ....  5.0000e-06 Eh
Max. Gradient            TolMAXG  ....  3.0000e-04 Eh/bohr
RMS Gradient             TolRMSG  ....  1.0000e-04 Eh/bohr
Max. Displacement        TolMAXD  ....  4.0000e-03 bohr
RMS Displacement         TolRMSD  ....  2.0000e-03 bohr
Strict Convergence                ....  False
------------------------------------------------------------------------------
                        ORCA OPTIMIZATION COORDINATE SETUP
------------------------------------------------------------------------------

The optimization will be done in new redundant internal coordinates
Making redundant internal coordinates   ...  (new redundants) done
Following TS mode number                ...    internal coordinate number: 10
Evaluating the initial hessian          ...  (Is done on the fly) done
Evaluating the coordinates              ...  done
Calculating the B-matrix                .... done
Calculating the G-matrix                .... done
Diagonalizing the G-matrix              .... done
The first mode is                       ....   53
The number of degrees of freedom        ....   24

    -----------------------------------------------------------------
                    Redundant Internal Coordinates


    -----------------------------------------------------------------
         Definition                    Initial Value    d2E/dq (diagonal element)
    -----------------------------------------------------------------
      1. B(C   2,O   0)                  1.3893         0.000000   
      2. B(C   2,C   1)                  1.5048         0.000000   
      3. B(C   3,C   2)                  1.3395         0.000000   
      4. B(H   4,C   1)                  1.0944         0.000000   
      5. B(H   5,C   1)                  1.1013         0.000000   
      6. B(H   6,C   1)                  1.1013         0.000000   
      7. B(H   7,C   3)                  1.0867         0.000000   
      8. B(H   8,C   3)                  1.0849         0.000000   
      9. B(H   9,H   7)                  1.2529         0.000000   
     10. B(H   9,C   3)                  1.4976         0.000000   
     11. B(H   9,C   2)                  1.5491         0.000000   
     12. B(H   9,O   0)                  1.4167         0.000000   
     13. A(C   2,O   0,H   9)           67.0080         0.000000   
     14. A(C   2,C   1,H   4)          111.0697         0.000000   
     15. A(C   2,C   1,H   5)          110.8551         0.000000   
     16. A(H   4,C   1,H   6)          108.1764         0.000000   
     17. A(H   5,C   1,H   6)          107.5778         0.000000   
     18. A(H   4,C   1,H   5)          108.1764         0.000000   
     19. A(C   2,C   1,H   6)          110.8548         0.000000   
     20. A(O   0,C   2,H   9)           57.3408         0.000000   
     21. A(O   0,C   2,C   1)          115.4704         0.000000   
     22. A(C   1,C   2,H   9)          172.3369         0.000000   
     23. A(O   0,C   2,C   3)          119.2319         0.000000   
     24. A(C   1,C   2,C   3)          125.2977         0.000000   
     25. A(C   3,C   2,H   9)           61.9583         0.000000   
     26. A(H   7,C   3,H   8)          118.5385         0.000000   
     27. A(C   2,C   3,H   8)          120.3410         0.000000   
     28. A(C   2,C   3,H   7)          121.1204         0.000000   
     29. A(H   8,C   3,H   9)          173.2372         0.000000   
     30. A(H   7,C   3,H   9)           55.2783         0.000000   
     31. A(C   2,C   3,H   9)           65.9119         0.000000   
     32. A(C   3,H   7,H   9)           79.2510         0.000000   
     33. A(C   3,H   9,H   7)           45.4707         0.000000   
     34. A(C   2,H   9,H   7)           97.5553         0.000000   
     35. A(O   0,H   9,H   7)          152.7852         0.000000   
     36. A(C   2,H   9,C   3)           52.1298         0.000000   
     37. A(O   0,H   9,C   3)          107.7271         0.000000   
     38. A(O   0,H   9,C   2)           55.6513         0.000000   
     39. D(C   1,C   2,O   0,H   9)    176.9596         0.000000   
     40. D(O   0,C   2,C   1,H   6)     59.7002         0.000000   
     41. D(C   3,C   2,O   0,H   9)     -3.0407         0.000000   
     42. D(O   0,C   2,C   1,H   5)    -59.7036         0.000000   
     43. D(C   3,C   2,C   1,H   4)     -0.0015         0.000000   
     44. D(O   0,C   2,C   1,H   4)    179.9982         0.000000   
     45. D(H   9,C   2,C   1,H   5)    -40.1391         0.000000   
     46. D(H   9,C   2,C   1,H   4)   -160.4373         0.000000   
     47. D(H   9,C   2,C   1,H   6)     79.2647         0.000000   
     48. D(C   3,C   2,C   1,H   6)   -120.2995         0.000000   
     49. D(C   3,C   2,C   1,H   5)    120.2967         0.000000   
     50. D(H   7,C   3,C   2,C   1)   -179.9995         0.000000   
     51. D(H   7,C   3,C   2,H   9)     -2.8995         0.000000   
     52. D(H   7,C   3,C   2,O   0)      0.0008         0.000000   
     53. D(H   8,C   3,C   2,O   0)   -179.9992         0.000000   
     54. D(H   9,C   3,C   2,O   0)      2.9003         0.000000   
     55. D(H   8,C   3,C   2,H   9)    177.1005         0.000000   
     56. D(H   8,C   3,C   2,C   1)      0.0005         0.000000   
     57. D(H   9,C   3,C   2,C   1)   -177.1000         0.000000   
     58. D(H   9,H   7,C   3,H   8)   -176.7792         0.000000   
     59. D(H   9,H   7,C   3,C   2)      3.2208         0.000000   
     60. D(H   7,H   9,C   2,C   3)      2.1713         0.000000   
     61. D(H   7,H   9,C   2,C   1)    164.1330         0.000000   
     62. D(H   7,H   9,C   2,O   0)   -174.8223         0.000000   
     63. D(C   3,H   9,C   2,C   1)    161.9616         0.000000   
     64. D(C   3,H   9,C   2,O   0)   -176.9937         0.000000   
     65. D(O   0,H   9,C   2,C   3)    176.9937         0.000000   
     66. D(O   0,H   9,C   2,C   1)    -21.0447         0.000000   
     67. D(H   7,H   9,O   0,C   2)     11.2808         0.000000   
     68. D(O   0,H   9,C   3,C   2)     -2.6055         0.000000   
     69. D(C   3,H   9,O   0,C   2)      2.4912         0.000000   
     70. D(O   0,H   9,H   7,C   3)    -11.7809         0.000000   
     71. D(H   7,H   9,C   3,H   8)     24.7801         0.000000   
     72. D(H   7,H   9,C   3,C   2)   -176.9799         0.000000   
     73. D(C   2,H   9,C   3,H   8)   -158.2400         0.000000   
     74. D(C   2,H   9,C   3,H   7)    176.9799         0.000000   
     75. D(O   0,H   9,C   3,H   8)   -160.8455         0.000000   
     76. D(C   2,H   9,H   7,C   3)     -2.4045         0.000000   
     77. D(O   0,H   9,C   3,H   7)    174.3744         0.000000   
    -----------------------------------------------------------------

Number of atoms                         .... 10
Number of degrees of freedom            .... 77

         *************************************************************
         *                GEOMETRY OPTIMIZATION CYCLE   1            *
         *************************************************************
---------------------------------
CARTESIAN COORDINATES (ANGSTROEM)
---------------------------------
  O     -0.441590   -1.287680    0.000050
  C      1.447210    0.269620   -0.000220
  C     -0.040350    0.042420   -0.000150
  C     -0.970520    1.006260   -0.000270
  H      1.681950    1.338540   -0.000410
  H      1.913190   -0.184280    0.888420
  H      1.913150   -0.184590   -0.888730
  H     -2.029970    0.764370   -0.000200
  H     -0.677360    2.050790   -0.000440
  H     -1.528590   -0.381770    0.069120

----------------------------
CARTESIAN COORDINATES (A.U.)
----------------------------
  NO LB      ZA    FRAG     MASS         X           Y           Z
   0 O     8.0000    0    15.999   -0.834484   -2.433363    0.000094
   1 C     6.0000    0    12.011    2.734831    0.509508   -0.000416
   2 C     6.0000    0    12.011   -0.076250    0.080162   -0.000283
   3 C     6.0000    0    12.011   -1.834017    1.901556   -0.000510
   4 H     1.0000    0     1.008    3.178425    2.529474   -0.000775
   5 H     1.0000    0     1.008    3.615405   -0.348239    1.678870
   6 H     1.0000    0     1.008    3.615330   -0.348825   -1.679456
   7 H     1.0000    0     1.008   -3.836087    1.444450   -0.000378
   8 H     1.0000    0     1.008   -1.280025    3.875431   -0.000831
   9 H     1.0000    0     1.008   -2.888616   -0.721441    0.130618

--------------------------------
INTERNAL COORDINATES (ANGSTROEM)
--------------------------------
 O      0   0   0     0.000000000000     0.00000000     0.00000000
 C      1   0   0     2.448009150902     0.00000000     0.00000000
 C      1   2   0     1.389301834592    33.70815795     0.00000000
 C      3   1   2     1.339478924396   119.23190334   179.99971047
 H      2   1   3     1.094391552462   141.89112032     0.00000000
 H      2   1   3     1.101291796029    93.68013673   126.04783071
 H      2   1   3     1.101297792516    93.67844525   233.94947338
 H      4   3   1     1.086712970154   121.12043003     0.00000000
 H      4   3   1     1.084889734213   120.34102689   180.00081923
 H      8   4   3     1.252926201498    79.25100069     3.22077440

---------------------------
INTERNAL COORDINATES (A.U.)
---------------------------
 O      0   0   0     0.000000000000     0.00000000     0.00000000
 C      1   0   0     4.626066868538     0.00000000     0.00000000
 C      1   2   0     2.625399984733    33.70815795     0.00000000
 C      3   1   2     2.531248329267   119.23190334   179.99971047
 H      2   1   3     2.068100317430   141.89112032     0.00000000
 H      2   1   3     2.081139888028    93.68013673   126.04783071
 H      2   1   3     2.081151219747    93.67844525   233.94947338
 H      4   3   1     2.053589899770   121.12043003     0.00000000
 H      4   3   1     2.050144483165   120.34102689   180.00081923
 H      8   4   3     2.367687386845    79.25100069     3.22077440

---------------------
BASIS SET INFORMATION
---------------------
There are 3 groups of distinct atoms

 Group   1 Type O   : 11s6p2d1f contracted to 5s3p2d1f pattern {62111/411/11/1}
 Group   2 Type C   : 11s6p2d1f contracted to 5s3p2d1f pattern {62111/411/11/1}
 Group   3 Type H   : 5s1p contracted to 3s1p pattern {311/1}

Atom   0O    basis set group =>   1
Atom   1C    basis set group =>   2
Atom   2C    basis set group =>   2
Atom   3C    basis set group =>   2
Atom   4H    basis set group =>   3
Atom   5H    basis set group =>   3
Atom   6H    basis set group =>   3
Atom   7H    basis set group =>   3
Atom   8H    basis set group =>   3
Atom   9H    basis set group =>   3
---------------------------------
AUXILIARY/J BASIS SET INFORMATION
---------------------------------
There are 3 groups of distinct atoms

 Group   1 Type O   : 12s5p4d2f1g contracted to 6s4p3d1f1g pattern {711111/2111/211/2/1}
 Group   2 Type C   : 12s5p4d2f1g contracted to 6s4p3d1f1g pattern {711111/2111/211/2/1}
 Group   3 Type H   : 5s2p1d contracted to 3s1p1d pattern {311/2/1}

Atom   0O    basis set group =>   1
Atom   1C    basis set group =>   2
Atom   2C    basis set group =>   2
Atom   3C    basis set group =>   2
Atom   4H    basis set group =>   3
Atom   5H    basis set group =>   3
Atom   6H    basis set group =>   3
Atom   7H    basis set group =>   3
Atom   8H    basis set group =>   3
Atom   9H    basis set group =>   3


           ************************************************************
           *        Program running with 6 parallel MPI-processes     *
           *              working on a common directory               *
           ************************************************************
------------------------------------------------------------------------------
                           ORCA GTO INTEGRAL CALCULATION
                           -- RI-GTO INTEGRALS CHOSEN --
------------------------------------------------------------------------------
------------------------------------------------------------------------------
                   ___                                                        
                  /   \      - P O W E R E D   B Y -                         
                 /     \                                                     
                 |  |  |   _    _      __       _____    __    __             
                 |  |  |  | |  | |    /  \     |  _  \  |  |  /  |          
                  \  \/   | |  | |   /    \    | | | |  |  | /  /          
                 / \  \   | |__| |  /  /\  \   | |_| |  |  |/  /          
                |  |  |   |  __  | /  /__\  \  |    /   |      \           
                |  |  |   | |  | | |   __   |  |    \   |  |\   \          
                \     /   | |  | | |  |  |  |  | |\  \  |  | \   \       
                 \___/    |_|  |_| |__|  |__|  |_| \__\ |__|  \__/        
                                                                              
                      - O R C A' S   B I G   F R I E N D -                    
                                      &                                       
                       - I N T E G R A L  F E E D E R -                       
                                                                              
 v1 FN, 2020, v2 2021                                                         
------------------------------------------------------------------------------


Reading SHARK input file ts.SHARKINP.tmp ... ok
----------------------
SHARK INTEGRAL PACKAGE
----------------------

Number of atoms                             ...     10
Number of basis functions                   ...    160
Number of shells                            ...     68
Maximum angular momentum                    ...      3
Integral batch strategy                     ... SHARK/LIBINT Hybrid
RI-J (if used) integral strategy            ... SPLIT-RIJ (Revised 2003 algorithm where possible)
Printlevel                                  ...      1
Contraction scheme used                     ... SEGMENTED contraction
Coulomb Range Separation                    ... NOT USED
Exchange Range Separation                   ... NOT USED
Finite Nucleus Model                        ... NOT USED
Auxiliary Coulomb fitting basis             ... AVAILABLE
   # of basis functions in Aux-J            ...    262
   # of shells in Aux-J                     ...     90
   Maximum angular momentum in Aux-J        ...      4
Auxiliary J/K fitting basis                 ... NOT available
Auxiliary Correlation fitting basis         ... NOT available
Auxiliary 'external' fitting basis          ... NOT available
Integral threshold                          ...     2.500000e-11
Primitive cut-off                           ...     2.500000e-12
Primitive pair pre-selection threshold      ...     2.500000e-12

Calculating pre-screening integrals         ... done (  0.0 sec) Dimension = 68
Organizing shell pair data                  ... done (  0.0 sec)
Shell pair information
Total number of shell pairs                 ...      2346
Shell pairs after pre-screening             ...      2293
Total number of primitive shell pairs       ...      6892
Primitive shell pairs kept                  ...      5521
          la=0 lb=0:    703 shell pairs
          la=1 lb=0:    673 shell pairs
          la=1 lb=1:    171 shell pairs
          la=2 lb=0:    300 shell pairs
          la=2 lb=1:    144 shell pairs
          la=2 lb=2:     36 shell pairs
          la=3 lb=0:    152 shell pairs
          la=3 lb=1:     72 shell pairs
          la=3 lb=2:     32 shell pairs
          la=3 lb=3:     10 shell pairs

Calculating one electron integrals          ... done (  0.0 sec)
Calculating RI/J V-Matrix + Cholesky decomp.... done (  0.0 sec)
Calculating Nuclear repulsion               ... done (  0.0 sec) ENN=    119.587839249400 Eh

SHARK setup successfully completed in   0.1 seconds

Maximum memory used throughout the entire GTOINT-calculation: 15.9 MB


           ************************************************************
           *        Program running with 6 parallel MPI-processes     *
           *              working on a common directory               *
           ************************************************************
-------------------------------------------------------------------------------
                                 ORCA SCF
-------------------------------------------------------------------------------

------------
SCF SETTINGS
------------
Hamiltonian:
 Density Functional     Method          .... DFT(GTOs)
 Exchange Functional    Exchange        .... B88
   X-Alpha parameter    XAlpha          ....  0.666667
   Becke's b parameter  XBeta           ....  0.004200
 Correlation Functional Correlation     .... LYP
 Gradients option       PostSCFGGA      .... off
   Density functional embedding theory  .... OFF
   NL short-range parameter             ....  4.000000
 RI-approximation to the Coulomb term is turned on
   Number of AuxJ basis functions       .... 262


General Settings:
 Integral files         IntName         .... ts
 Hartree-Fock type      HFTyp           .... RHF
 Total Charge           Charge          ....    0
 Multiplicity           Mult            ....    1
 Number of Electrons    NEL             ....   32
 Basis Dimension        Dim             ....  160
 Nuclear Repulsion      ENuc            ....    119.5878392494 Eh

Convergence Acceleration:
 DIIS                   CNVDIIS         .... on
   Start iteration      DIISMaxIt       ....    12
   Startup error        DIISStart       ....  0.200000
   # of expansion vecs  DIISMaxEq       ....     5
   Bias factor          DIISBfac        ....   1.050
   Max. coefficient     DIISMaxC        ....  10.000
 Trust-Rad. Augm. Hess. CNVTRAH         .... auto
   Auto Start mean grad. ratio tolernc. ....  1.125000
   Auto Start start iteration           ....    20
   Auto Start num. interpolation iter.  ....    10
   Max. Number of Micro iterations      ....    16
   Max. Number of Macro iterations      .... Maxiter - #DIIS iter
   Number of Davidson start vectors     ....     2
   Converg. threshold I  (grad. norm)   ....   1.000e-05
   Converg. threshold II (energy diff.) ....   1.000e-08
   Grad. Scal. Fac. for Micro threshold ....   0.100
   Minimum threshold for Micro iter.    ....   0.010
   NR start threshold (gradient norm)   ....   0.001
   Initial trust radius                 ....   0.400
   Minimum AH scaling param. (alpha)    ....   1.000
   Maximum AH scaling param. (alpha)    .... 1000.000
   Orbital update algorithm             .... Taylor
   White noise on init. David. guess    .... on
   Maximum white noise                  ....   0.010
   Quad. conv. algorithm                .... NR
 SOSCF                  CNVSOSCF        .... on
   Start iteration      SOSCFMaxIt      ....   150
   Startup grad/error   SOSCFStart      ....  0.003300
 Level Shifting         CNVShift        .... on
   Level shift para.    LevelShift      ....    0.2500
   Turn off err/grad.   ShiftErr        ....    0.0010
 Zerner damping         CNVZerner       .... off
 Static damping         CNVDamp         .... on
   Fraction old density DampFac         ....    0.7000
   Max. Damping (<1)    DampMax         ....    0.9800
   Min. Damping (>=0)   DampMin         ....    0.0000
   Turn off err/grad.   DampErr         ....    0.1000
 Fernandez-Rico         CNVRico         .... off

SCF Procedure:
 Maximum # iterations   MaxIter         ....   125
 SCF integral mode      SCFMode         .... Direct
   Integral package                     .... SHARK and LIBINT hybrid scheme
 Reset frequency        DirectResetFreq ....    20
 Integral Threshold     Thresh          ....  2.500e-11 Eh
 Primitive CutOff       TCut            ....  2.500e-12 Eh

Convergence Tolerance:
 Convergence Check Mode ConvCheckMode   .... Total+1el-Energy
 Convergence forced     ConvForced      .... 0
 Energy Change          TolE            ....  1.000e-08 Eh
 1-El. energy change                    ....  1.000e-05 Eh
 Orbital Gradient       TolG            ....  1.000e-05
 Orbital Rotation angle TolX            ....  1.000e-05
 DIIS Error             TolErr          ....  5.000e-07


Diagonalization of the overlap matrix:
Smallest eigenvalue                        ... 1.520e-04
Time for diagonalization                   ...    0.002 sec
Threshold for overlap eigenvalues          ... 1.000e-08
Number of eigenvalues below threshold      ... 0
Time for construction of square roots      ...    0.002 sec
Total time needed                          ...    0.004 sec

Time for model grid setup =    0.023 sec

------------------------------
INITIAL GUESS: MODEL POTENTIAL
------------------------------
Loading Hartree-Fock densities                     ... done
Calculating cut-offs                               ... done
Initializing the effective Hamiltonian             ... done
Setting up the integral package (SHARK)            ... done
Starting the Coulomb interaction                   ... done (   0.0 sec)
Reading the grid                                   ... done
Mapping shells                                     ... done
Starting the XC term evaluation                    ... done (   0.0 sec)
  promolecular density results
     # of electrons  =     31.997527997
     EX              =    -25.359826803
     EC              =     -1.051917850
     EX+EC           =    -26.411744653
Transforming the Hamiltonian                       ... done (   0.0 sec)
Diagonalizing the Hamiltonian                      ... done (   0.0 sec)
Back transforming the eigenvectors                 ... done (   0.0 sec)
Now organizing SCF variables                       ... done
                      ------------------
                      INITIAL GUESS DONE (   0.1 sec)
                      ------------------
-------------------
DFT GRID GENERATION
-------------------

General Integration Accuracy     IntAcc      ... 4.388
Radial Grid Type                 RadialGrid  ... OptM3 with GC (2021)
Angular Grid (max. ang.)         AngularGrid ... 4 (Lebedev-302)
Angular grid pruning method      GridPruning ... 4 (adaptive)
Weight generation scheme         WeightScheme... Becke
Basis function cutoff            BFCut       ... 1.0000e-11
Integration weight cutoff        WCut        ... 1.0000e-14
Angular grids for H and He will be reduced by one unit
Partially contracted basis set               ... off
Rotationally invariant grid construction     ... off

Total number of grid points                  ...    43716
Total number of batches                      ...      688
Average number of points per batch           ...       63
Average number of grid points per atom       ...     4372
Time for grid setup =    0.147 sec

--------------
SCF ITERATIONS
--------------
ITER       Energy         Delta-E        Max-DP      RMS-DP      [F,P]     Damp
               ***  Starting incremental Fock matrix formation  ***
  0   -192.8436789003   0.000000000000 0.06378859  0.00206695  0.2760996 0.7000
  1   -192.9405700719  -0.096891171666 0.04960477  0.00133339  0.0903616 0.7000
                               ***Turning on DIIS***
  2   -192.9674763339  -0.026906261944 0.05599568  0.00163325  0.0360576 0.0000
  3   -193.0155085193  -0.048032185371 0.04464702  0.00102376  0.0667054 0.0000
  4   -193.0279877483  -0.012479229086 0.01103451  0.00031681  0.0391868 0.0000
  5   -193.0307882009  -0.002800452534 0.00318706  0.00010451  0.0050551 0.0000
                      *** Initiating the SOSCF procedure ***
                           *** Shutting down DIIS ***
                      *** Re-Reading the Fockian *** 
                      *** Removing any level shift *** 
ITER      Energy       Delta-E        Grad      Rot      Max-DP    RMS-DP
  6   -193.03090366  -0.0001154567  0.000396  0.000396  0.000985  0.000042
               *** Restarting incremental Fock matrix formation ***
  7   -193.03091372  -0.0000100618  0.000411  0.002283  0.001153  0.000034
  8   -193.03090956   0.0000041559  0.000846  0.001178  0.000677  0.000018
  9   -193.03091511  -0.0000055481  0.000252  0.000967  0.000721  0.000019
 10   -193.03091213   0.0000029797  0.000546  0.000575  0.000451  0.000012
 11   -193.03091553  -0.0000033982  0.000009  0.000047  0.000042  0.000001
 12   -193.03091553  -0.0000000017  0.000005  0.000012  0.000012  0.000000
                  ***Gradient check signals convergence***
              ***Rediagonalizing the Fockian in SOSCF/NRSCF***

               *****************************************************
               *                     SUCCESS                       *
               *           SCF CONVERGED AFTER  13 CYCLES          *
               *****************************************************


----------------
TOTAL SCF ENERGY
----------------

Total Energy       :         -193.03091553 Eh           -5252.63825 eV

Components:
Nuclear Repulsion  :          119.58783925 Eh            3254.15054 eV
Electronic Energy  :         -312.61875478 Eh           -8506.78879 eV
One Electron Energy:         -497.70154279 Eh          -13543.14750 eV
Two Electron Energy:          185.08278800 Eh            5036.35871 eV

Virial components:
Potential Energy   :         -385.27986818 Eh          -10483.99821 eV
Kinetic Energy     :          192.24895265 Eh            5231.35996 eV
Virial Ratio       :            2.00406745


DFT components:
N(Alpha)           :       15.999984086608 electrons
N(Beta)            :       15.999984086608 electrons
N(Total)           :       31.999968173217 electrons
E(X)               :      -25.882429059880 Eh       
E(C)               :       -1.061682665800 Eh       
E(XC)              :      -26.944111725680 Eh       
DFET-embed. en.    :        0.000000000000 Eh       

---------------
SCF CONVERGENCE
---------------

  Last Energy change         ...   -1.2530e-09  Tolerance :   1.0000e-08
  Last MAX-Density change    ...    4.3743e-06  Tolerance :   1.0000e-07
  Last RMS-Density change    ...    2.1933e-07  Tolerance :   5.0000e-09
  Last Orbital Gradient      ...    1.7991e-06  Tolerance :   1.0000e-05
  Last Orbital Rotation      ...    6.4559e-06  Tolerance :   1.0000e-05

             **** THE GBW FILE WAS UPDATED (ts.gbw) ****
             **** DENSITY ts.scfp WAS UPDATED ****
             **** ENERGY FILE WAS UPDATED (ts.en.tmp) ****
             **** THE GBW FILE WAS UPDATED (ts.gbw) ****
             **** DENSITY ts.scfp WAS UPDATED ****
----------------
ORBITAL ENERGIES
----------------

  NO   OCC          E(Eh)            E(eV) 
   0   2.0000     -18.780472      -511.0426 
   1   2.0000      -9.982047      -271.6253 
   2   2.0000      -9.913679      -269.7649 
   3   2.0000      -9.912679      -269.7377 
   4   2.0000      -0.913136       -24.8477 
   5   2.0000      -0.706189       -19.2164 
   6   2.0000      -0.654666       -17.8144 
   7   2.0000      -0.496012       -13.4972 
   8   2.0000      -0.462899       -12.5961 
   9   2.0000      -0.412908       -11.2358 
  10   2.0000      -0.384819       -10.4715 
  11   2.0000      -0.351417        -9.5625 
  12   2.0000      -0.336863        -9.1665 
  13   2.0000      -0.302520        -8.2320 
  14   2.0000      -0.271178        -7.3791 
  15   2.0000      -0.198850        -5.4110 
  16   0.0000      -0.050589        -1.3766 
  17   0.0000      -0.018535        -0.5044 
  18   0.0000       0.032064         0.8725 
  19   0.0000       0.041760         1.1364 
  20   0.0000       0.067410         1.8343 
  21   0.0000       0.098172         2.6714 
  22   0.0000       0.100014         2.7215 
  23   0.0000       0.120782         3.2866 
  24   0.0000       0.133428         3.6308 
  25   0.0000       0.170523         4.6402 
  26   0.0000       0.180141         4.9019 
  27   0.0000       0.221576         6.0294 
  28   0.0000       0.229772         6.2524 
  29   0.0000       0.233633         6.3575 
  30   0.0000       0.257394         7.0040 
  31   0.0000       0.291753         7.9390 
  32   0.0000       0.292161         7.9501 
  33   0.0000       0.324158         8.8208 
  34   0.0000       0.343675         9.3519 
  35   0.0000       0.363953         9.9037 
  36   0.0000       0.388664        10.5761 
  37   0.0000       0.407727        11.0948 
  38   0.0000       0.411485        11.1971 
  39   0.0000       0.422647        11.5008 
  40   0.0000       0.453491        12.3401 
  41   0.0000       0.460705        12.5364 
  42   0.0000       0.492725        13.4077 
  43   0.0000       0.499595        13.5947 
  44   0.0000       0.534793        14.5525 
  45   0.0000       0.542718        14.7681 
  46   0.0000       0.580470        15.7954 
  47   0.0000       0.618940        16.8422 
  48   0.0000       0.664510        18.0822 
  49   0.0000       0.728754        19.8304 
  50   0.0000       0.788929        21.4679 
  51   0.0000       0.816962        22.2307 
  52   0.0000       0.873735        23.7755 
  53   0.0000       0.888794        24.1853 
  54   0.0000       0.922352        25.0985 
  55   0.0000       0.947492        25.7826 
  56   0.0000       0.983195        26.7541 
  57   0.0000       0.995262        27.0824 
  58   0.0000       1.029292        28.0085 
  59   0.0000       1.095778        29.8176 
  60   0.0000       1.147009        31.2117 
  61   0.0000       1.180686        32.1281 
  62   0.0000       1.231143        33.5011 
  63   0.0000       1.319738        35.9119 
  64   0.0000       1.327577        36.1252 
  65   0.0000       1.404969        38.2312 
  66   0.0000       1.412079        38.4246 
  67   0.0000       1.459378        39.7117 
  68   0.0000       1.462071        39.7850 
  69   0.0000       1.469163        39.9780 
  70   0.0000       1.487308        40.4717 
  71   0.0000       1.499825        40.8123 
  72   0.0000       1.530135        41.6371 
  73   0.0000       1.602673        43.6109 
  74   0.0000       1.653142        44.9843 
  75   0.0000       1.686653        45.8962 
  76   0.0000       1.726693        46.9857 
  77   0.0000       1.786935        48.6250 
  78   0.0000       1.798715        48.9455 
  79   0.0000       1.820419        49.5361 
  80   0.0000       1.875252        51.0282 
  81   0.0000       1.911615        52.0177 
  82   0.0000       1.942157        52.8488 
  83   0.0000       1.961709        53.3808 
  84   0.0000       2.011179        54.7270 
  85   0.0000       2.087976        56.8167 
  86   0.0000       2.105686        57.2986 
  87   0.0000       2.174687        59.1762 
  88   0.0000       2.180497        59.3343 
  89   0.0000       2.206736        60.0484 
  90   0.0000       2.216079        60.3026 
  91   0.0000       2.268846        61.7384 
  92   0.0000       2.315794        63.0159 
  93   0.0000       2.352685        64.0198 
  94   0.0000       2.402136        65.3654 
  95   0.0000       2.417156        65.7742 
  96   0.0000       2.437221        66.3201 
  97   0.0000       2.516189        68.4690 
  98   0.0000       2.522218        68.6330 
  99   0.0000       2.548505        69.3484 
 100   0.0000       2.593793        70.5807 
 101   0.0000       2.661097        72.4121 
 102   0.0000       2.678056        72.8736 
 103   0.0000       2.712656        73.8151 
 104   0.0000       2.763393        75.1957 
 105   0.0000       2.808713        76.4290 
 106   0.0000       2.862009        77.8792 
 107   0.0000       2.870138        78.1004 
 108   0.0000       2.872730        78.1710 
 109   0.0000       2.965183        80.6867 
 110   0.0000       2.992629        81.4336 
 111   0.0000       3.009211        81.8848 
 112   0.0000       3.062362        83.3311 
 113   0.0000       3.072523        83.6076 
 114   0.0000       3.100853        84.3785 
 115   0.0000       3.117293        84.8258 
 116   0.0000       3.121622        84.9436 
 117   0.0000       3.182534        86.6012 
 118   0.0000       3.193180        86.8909 
 119   0.0000       3.241763        88.2129 
 120   0.0000       3.270770        89.0022 
 121   0.0000       3.276907        89.1692 
 122   0.0000       3.326451        90.5173 
 123   0.0000       3.340490        90.8994 
 124   0.0000       3.396688        92.4286 
 125   0.0000       3.500244        95.2465 
 126   0.0000       3.555031        96.7373 
 127   0.0000       3.606112        98.1273 
 128   0.0000       3.643600        99.1474 
 129   0.0000       3.687272       100.3358 
 130   0.0000       3.746542       101.9486 
 131   0.0000       3.826589       104.1268 
 132   0.0000       3.890292       105.8602 
 133   0.0000       4.129254       112.3627 
 134   0.0000       4.220879       114.8559 
 135   0.0000       4.233790       115.2073 
 136   0.0000       4.258741       115.8862 
 137   0.0000       4.327379       117.7540 
 138   0.0000       4.332546       117.8946 
 139   0.0000       4.452202       121.1506 
 140   0.0000       4.515670       122.8776 
 141   0.0000       4.596606       125.0800 
 142   0.0000       4.726400       128.6119 
 143   0.0000       4.849401       131.9589 
 144   0.0000       5.084781       138.3639 
 145   0.0000       5.223814       142.1472 
 146   0.0000       5.268559       143.3648 
 147   0.0000       5.375447       146.2733 
 148   0.0000       5.635195       153.3414 
 149   0.0000       5.898126       160.4962 
 150   0.0000       6.011801       163.5894 
 151   0.0000       6.214341       169.1008 
 152   0.0000       6.429777       174.9631 
 153   0.0000       6.600115       179.5982 
 154   0.0000       6.806655       185.2185 
 155   0.0000       6.861907       186.7220 
 156   0.0000      21.964672       597.6891 
 157   0.0000      22.017387       599.1236 
 158   0.0000      22.582890       614.5117 
 159   0.0000      43.339274      1179.3216 

                    ********************************
                    * MULLIKEN POPULATION ANALYSIS *
                    ********************************

-----------------------
MULLIKEN ATOMIC CHARGES
-----------------------
   0 O :   -0.413331
   1 C :   -0.313076
   2 C :    0.285171
   3 C :   -0.391889
   4 H :    0.100289
   5 H :    0.119658
   6 H :    0.119884
   7 H :    0.110932
   8 H :    0.120866
   9 H :    0.261497
Sum of atomic charges:   -0.0000000

--------------------------------
MULLIKEN REDUCED ORBITAL CHARGES
--------------------------------
  0 O s       :     3.879637  s :     3.879637
      pz      :     1.733969  p :     4.504399
      px      :     1.446610
      py      :     1.323820
      dz2     :     0.003618  d :     0.028091
      dxz     :     0.000093
      dyz     :     0.006626
      dx2y2   :     0.008273
      dxy     :     0.009480
      f0      :     0.000170  f :     0.001205
      f+1     :     0.000092
      f-1     :     0.000267
      f+2     :     0.000123
      f-2     :     0.000021
      f+3     :     0.000272
      f-3     :     0.000260
  1 C s       :     3.307181  s :     3.307181
      pz      :     1.047849  p :     2.967285
      px      :     0.890951
      py      :     1.028485
      dz2     :     0.002586  d :     0.035357
      dxz     :     0.017286
      dyz     :     0.000543
      dx2y2   :     0.004517
      dxy     :     0.010423
      f0      :     0.000269  f :     0.003252
      f+1     :     0.000541
      f-1     :     0.000567
      f+2     :     0.000363
      f-2     :    -0.000052
      f+3     :     0.000671
      f-3     :     0.000894
  2 C s       :     3.167904  s :     3.167904
      pz      :     0.856542  p :     2.367619
      px      :     0.802882
      py      :     0.708194
      dz2     :     0.003823  d :     0.164293
      dxz     :     0.032043
      dyz     :     0.047570
      dx2y2   :     0.039921
      dxy     :     0.040935
      f0      :     0.002225  f :     0.015015
      f+1     :     0.001031
      f-1     :     0.000948
      f+2     :     0.001664
      f-2     :     0.001652
      f+3     :     0.002899
      f-3     :     0.004596
  3 C s       :     3.267393  s :     3.267393
      pz      :     1.296583  p :     3.090049
      px      :     0.837392
      py      :     0.956074
      dz2     :     0.005993  d :     0.028849
      dxz     :     0.001522
      dyz     :     0.008533
      dx2y2   :     0.010040
      dxy     :     0.002761
      f0      :     0.001471  f :     0.005598
      f+1     :     0.000662
      f-1     :     0.000979
      f+2     :     0.000048
      f-2     :     0.000193
      f+3     :     0.001084
      f-3     :     0.001160
  4 H s       :     0.878320  s :     0.878320
      pz      :     0.004539  p :     0.021391
      px      :     0.005101
      py      :     0.011751
  5 H s       :     0.859168  s :     0.859168
      pz      :     0.009446  p :     0.021174
      px      :     0.005972
      py      :     0.005756
  6 H s       :     0.858934  s :     0.858934
      pz      :     0.009448  p :     0.021183
      px      :     0.005980
      py      :     0.005754
  7 H s       :     0.860349  s :     0.860349
      pz      :     0.008373  p :     0.028719
      px      :     0.014472
      py      :     0.005874
  8 H s       :     0.855585  s :     0.855585
      pz      :     0.007477  p :     0.023549
      px      :     0.003585
      py      :     0.012486
  9 H s       :     0.695466  s :     0.695466
      pz      :     0.006587  p :     0.043037
      px      :     0.012423
      py      :     0.024027


                     *******************************
                     * LOEWDIN POPULATION ANALYSIS *
                     *******************************

----------------------
LOEWDIN ATOMIC CHARGES
----------------------
   0 O :   -0.050397
   1 C :   -0.254769
   2 C :   -0.418506
   3 C :   -0.316460
   4 H :    0.126615
   5 H :    0.134130
   6 H :    0.134544
   7 H :    0.152554
   8 H :    0.139378
   9 H :    0.352911

-------------------------------
LOEWDIN REDUCED ORBITAL CHARGES
-------------------------------
  0 O s       :     3.514622  s :     3.514622
      pz      :     1.666566  p :     4.476310
      px      :     1.404079
      py      :     1.405665
      dz2     :     0.007763  d :     0.055772
      dxz     :     0.000499
      dyz     :     0.010986
      dx2y2   :     0.020148
      dxy     :     0.016376
      f0      :     0.000321  f :     0.003693
      f+1     :     0.000168
      f-1     :     0.000630
      f+2     :     0.000377
      f-2     :     0.000097
      f+3     :     0.000920
      f-3     :     0.001180
  1 C s       :     2.833102  s :     2.833102
      pz      :     1.073210  p :     3.164621
      px      :     1.026133
      py      :     1.065278
      dz2     :     0.034757  d :     0.232556
      dxz     :     0.066487
      dyz     :     0.019766
      dx2y2   :     0.061439
      dxy     :     0.050107
      f0      :     0.001757  f :     0.024491
      f+1     :     0.004023
      f-1     :     0.003269
      f+2     :     0.002177
      f-2     :     0.003383
      f+3     :     0.004019
      f-3     :     0.005864
  2 C s       :     2.761321  s :     2.761321
      pz      :     0.820936  p :     2.801459
      px      :     1.045549
      py      :     0.934973
      dz2     :     0.048769  d :     0.759129
      dxz     :     0.087792
      dyz     :     0.155164
      dx2y2   :     0.250584
      dxy     :     0.216819
      f0      :     0.005705  f :     0.096596
      f+1     :     0.005531
      f-1     :     0.008926
      f+2     :     0.010677
      f-2     :     0.013123
      f+3     :     0.021584
      f-3     :     0.031050
  3 C s       :     2.838004  s :     2.838004
      pz      :     1.182748  p :     3.200602
      px      :     0.976215
      py      :     1.041639
      dz2     :     0.027390  d :     0.247657
      dxz     :     0.010285
      dyz     :     0.020069
      dx2y2   :     0.122323
      dxy     :     0.067590
      f0      :     0.002376  f :     0.030197
      f+1     :     0.004451
      f-1     :     0.004493
      f+2     :     0.000146
      f-2     :     0.003390
      f+3     :     0.007547
      f-3     :     0.007794
  4 H s       :     0.813839  s :     0.813839
      pz      :     0.013342  p :     0.059546
      px      :     0.012967
      py      :     0.033237
  5 H s       :     0.806786  s :     0.806786
      pz      :     0.027085  p :     0.059085
      px      :     0.015345
      py      :     0.016655
  6 H s       :     0.806332  s :     0.806332
      pz      :     0.027093  p :     0.059124
      px      :     0.015380
      py      :     0.016650
  7 H s       :     0.774934  s :     0.774934
      pz      :     0.021878  p :     0.072512
      px      :     0.033009
      py      :     0.017625
  8 H s       :     0.795475  s :     0.795475
      pz      :     0.019640  p :     0.065147
      px      :     0.012266
      py      :     0.033241
  9 H s       :     0.537446  s :     0.537446
      pz      :     0.009110  p :     0.109643
      px      :     0.031340
      py      :     0.069193


                      *****************************
                      * MAYER POPULATION ANALYSIS *
                      *****************************

  NA   - Mulliken gross atomic population
  ZA   - Total nuclear charge
  QA   - Mulliken gross atomic charge
  VA   - Mayer's total valence
  BVA  - Mayer's bonded valence
  FA   - Mayer's free valence

  ATOM       NA         ZA         QA         VA         BVA        FA
  0 O      8.4133     8.0000    -0.4133     2.0969     2.0969    -0.0000
  1 C      6.3131     6.0000    -0.3131     3.8973     3.8973    -0.0000
  2 C      5.7148     6.0000     0.2852     3.7878     3.7878    -0.0000
  3 C      6.3919     6.0000    -0.3919     3.7203     3.7203    -0.0000
  4 H      0.8997     1.0000     0.1003     0.9711     0.9711    -0.0000
  5 H      0.8803     1.0000     0.1197     0.9713     0.9713    -0.0000
  6 H      0.8801     1.0000     0.1199     0.9701     0.9701    -0.0000
  7 H      0.8891     1.0000     0.1109     0.9703     0.9703    -0.0000
  8 H      0.8791     1.0000     0.1209     0.9777     0.9777     0.0000
  9 H      0.7385     1.0000     0.2615     0.9665     0.9665    -0.0000

  Mayer bond orders larger than 0.100000
B(  0-O ,  2-C ) :   1.2237 B(  0-O ,  3-C ) :   0.1097 B(  0-O ,  9-H ) :   0.6698 
B(  1-C ,  2-C ) :   0.9326 B(  1-C ,  4-H ) :   0.9791 B(  1-C ,  5-H ) :   0.9582 
B(  1-C ,  6-H ) :   0.9562 B(  2-C ,  3-C ) :   1.6413 B(  3-C ,  7-H ) :   0.8560 
B(  3-C ,  8-H ) :   0.9048 B(  3-C ,  9-H ) :   0.1472 B(  7-H ,  9-H ) :   0.1042 


-------
TIMINGS
-------

Total SCF time: 0 days 0 hours 0 min 1 sec 

Total time                  ....       1.503 sec
Sum of individual times     ....       1.435 sec  ( 95.5%)

Fock matrix formation       ....       1.155 sec  ( 76.8%)
  Split-RI-J                ....       0.323 sec  ( 28.0% of F)
  XC integration            ....       0.814 sec  ( 70.5% of F)
    Basis function eval.    ....       0.181 sec  ( 22.2% of XC)
    Density eval.           ....       0.166 sec  ( 20.4% of XC)
    XC-Functional eval.     ....       0.021 sec  (  2.6% of XC)
    XC-Potential eval.      ....       0.230 sec  ( 28.3% of XC)
Diagonalization             ....       0.022 sec  (  1.5%)
Density matrix formation    ....       0.004 sec  (  0.3%)
Population analysis         ....       0.005 sec  (  0.3%)
Initial guess               ....       0.041 sec  (  2.7%)
Orbital Transformation      ....       0.000 sec  (  0.0%)
Orbital Orthonormalization  ....       0.000 sec  (  0.0%)
DIIS solution               ....       0.017 sec  (  1.1%)
SOSCF solution              ....       0.021 sec  (  1.4%)
Grid generation             ....       0.170 sec  ( 11.3%)

Maximum memory used throughout the entire SCF-calculation: 15.7 MB


-------------------------------------------------------------------------------
                          DFT DISPERSION CORRECTION                            
                                                                               
                              DFTD3 V3.1  Rev 1                                
                          USING Becke-Johnson damping                          
-------------------------------------------------------------------------------
The BLYP functional is recognized
Active option DFTDOPT                   ...         4   

molecular C6(AA) [au] = 797.157091 


            DFT-D V3
 parameters
 s6 scaling factor         :     1.0000 
 a1 scaling factor         :     0.4298 
 s8 scaling factor         :     2.6996 
 a2 scaling factor         :     4.2359 
 ad hoc parameters k1-k3   :    16.0000     1.3333    -4.0000 

 Edisp/kcal,au: -7.952430778682  -0.012673003770 
 E6   /kcal   :  -3.279513140 
 E8   /kcal   :  -4.672917639 
 % E8         :  58.760871599 

-------------------------   ----------------
Dispersion correction           -0.012673004
-------------------------   ----------------


-------------------------   --------------------
FINAL SINGLE POINT ENERGY      -193.043588536859
-------------------------   --------------------



           ************************************************************
           *        Program running with 6 parallel MPI-processes     *
           *              working on a common directory               *
           ************************************************************
------------------------------------------------------------------------------
                         ORCA SCF GRADIENT CALCULATION
------------------------------------------------------------------------------

Gradient of the Kohn-Sham DFT energy:
Kohn-Sham wavefunction type      ... RKS
Hartree-Fock exchange scaling    ...    0.000
Number of operators              ...    1
Number of atoms                  ...   10
Basis set dimensions             ...  160
Integral neglect threshold       ... 2.5e-11
Integral primitive cutoff        ... 2.5e-12
SHARK Integral package           ... ON

Nuc. rep. gradient       (SHARK) ... done (  0.0 sec)
HCore & Overlap gradient (SHARK) ... done (  0.0 sec)
RI-J gradient            (SHARK) ... done (  0.1 sec)
Exchange-correlation gradient    ... done
Dispersion correction            ... done

------------------
CARTESIAN GRADIENT
------------------

   1   O   :    0.055116500   -0.072358747   -0.004865868
   2   C   :   -0.002911618   -0.003971170    0.000248166
   3   C   :   -0.039149292    0.032806722    0.003040461
   4   C   :   -0.025126870   -0.029154501    0.000441241
   5   H   :   -0.001099324   -0.000866747    0.000032545
   6   H   :    0.002684053    0.000556234    0.001729265
   7   H   :    0.002651247    0.000698623   -0.001625022
   8   H   :    0.019727293   -0.002499024    0.001873769
   9   H   :    0.009141571   -0.004752369   -0.001370079
  10   H   :   -0.021033562    0.079540978    0.000495524

Difference to translation invariance:
           :   -0.0000000000   -0.0000000000   -0.0000000000

Difference to rotation invariance:
           :   -0.0000199317    0.0000093368    0.0002416906

Norm of the cartesian gradient     ...    0.1404291043
RMS gradient                       ...    0.0256387294
MAX gradient                       ...    0.0795409778

-------
TIMINGS
-------

Total SCF gradient time            ...        0.667 sec

One electron gradient       ....       0.017 sec  (  2.5%)
RI-J Coulomb gradient       ....       0.128 sec  ( 19.2%)
XC gradient                 ....       0.286 sec  ( 42.9%)

Maximum memory used throughout the entire SCFGRAD-calculation: 28.1 MB

----------------------------------------------------------------------------
                           ORCA NUMERICAL FREQUENCIES
                              (6-process run)
----------------------------------------------------------------------------

Number of atoms                ... 10
Central differences            ... NOT used
Number of displacements        ... 30
Numerical increment            ... 5.000e-03 bohr
IR-spectrum generation         ... on
Raman-spectrum generation      ... off
Surface Crossing Hessian       ... off

The output will be reduced. Please look at the following files:
SCF program output             ... >ts.lastscf
Integral program output        ... >ts.lastint
Gradient program output        ... >ts.lastgrad
Dipole moment program output   ... >ts.lastmom
AutoCI program output          ... >ts.lastautoci

	<< Calculating on displaced geometry   4 (of  31) >>
	<< Calculating on displaced geometry   5 (of  31) >>
	<< Calculating on displaced geometry   1 (of  31) >>
	<< Calculating on displaced geometry   2 (of  31) >>
	<< Calculating on displaced geometry   3 (of  31) >>
	<< Calculating on displaced geometry   6 (of  31) >>
	<< Calculating on displaced geometry   7 (of  31) >>
	<< Calculating on displaced geometry   9 (of  31) >>
	<< Calculating on displaced geometry   8 (of  31) >>
	<< Calculating on displaced geometry  11 (of  31) >>
	<< Calculating on displaced geometry  10 (of  31) >>
	<< Calculating on displaced geometry  12 (of  31) >>
	<< Calculating on displaced geometry  13 (of  31) >>
	<< Calculating on displaced geometry  16 (of  31) >>
	<< Calculating on displaced geometry  14 (of  31) >>
	<< Calculating on displaced geometry  15 (of  31) >>
	<< Calculating on displaced geometry  17 (of  31) >>
	<< Calculating on displaced geometry  18 (of  31) >>
	<< Calculating on displaced geometry  19 (of  31) >>
	<< Calculating on displaced geometry  20 (of  31) >>
	<< Calculating on displaced geometry  21 (of  31) >>
	<< Calculating on displaced geometry  22 (of  31) >>
	<< Calculating on displaced geometry  23 (of  31) >>
	<< Calculating on displaced geometry  24 (of  31) >>
	<< Calculating on displaced geometry  25 (of  31) >>
	<< Calculating on displaced geometry  26 (of  31) >>
	<< Calculating on displaced geometry  27 (of  31) >>
	<< Calculating on displaced geometry  28 (of  31) >>
	<< Calculating on displaced geometry  29 (of  31) >>
	<< Calculating on displaced geometry  30 (of  31) >>
	<< Calculating on displaced geometry  31 (of  31) >>

-----------------------
VIBRATIONAL FREQUENCIES
-----------------------

Scaling factor for frequencies =  1.000000000 (already applied!)

   0:         0.00 cm**-1
   1:         0.00 cm**-1
   2:         0.00 cm**-1
   3:         0.00 cm**-1
   4:         0.00 cm**-1
   5:         0.00 cm**-1
   6:     -1365.09 cm**-1 ***imaginary mode***
   7:      -738.35 cm**-1 ***imaginary mode***
   8:       164.76 cm**-1
   9:       319.97 cm**-1
  10:       387.46 cm**-1
  11:       535.47 cm**-1
  12:       545.67 cm**-1
  13:       783.41 cm**-1
  14:       805.16 cm**-1
  15:       940.28 cm**-1
  16:       997.47 cm**-1
  17:      1041.33 cm**-1
  18:      1207.41 cm**-1
  19:      1364.46 cm**-1
  20:      1381.88 cm**-1
  21:      1441.66 cm**-1
  22:      1449.21 cm**-1
  23:      1454.76 cm**-1
  24:      1696.81 cm**-1
  25:      2948.94 cm**-1
  26:      2994.32 cm**-1
  27:      3039.67 cm**-1
  28:      3089.04 cm**-1
  29:      3167.52 cm**-1


------------
NORMAL MODES
------------

These modes are the cartesian displacements weighted by the diagonal matrix
M(i,i)=1/sqrt(m[i]) where m[i] is the mass of the displaced atom
Thus, these vectors are normalized but *not* orthogonal

                  0          1          2          3          4          5    
      0       0.000000   0.000000   0.000000   0.000000   0.000000   0.000000
      1       0.000000   0.000000   0.000000   0.000000   0.000000   0.000000
      2       0.000000   0.000000   0.000000   0.000000   0.000000   0.000000
      3       0.000000   0.000000   0.000000   0.000000   0.000000   0.000000
      4       0.000000   0.000000   0.000000   0.000000   0.000000   0.000000
      5       0.000000   0.000000   0.000000   0.000000   0.000000   0.000000
      6       0.000000   0.000000   0.000000   0.000000   0.000000   0.000000
      7       0.000000   0.000000   0.000000   0.000000   0.000000   0.000000
      8       0.000000   0.000000   0.000000   0.000000   0.000000   0.000000
      9       0.000000   0.000000   0.000000   0.000000   0.000000   0.000000
     10       0.000000   0.000000   0.000000   0.000000   0.000000   0.000000
     11       0.000000   0.000000   0.000000   0.000000   0.000000   0.000000
     12       0.000000   0.000000   0.000000   0.000000   0.000000   0.000000
     13       0.000000   0.000000   0.000000   0.000000   0.000000   0.000000
     14       0.000000   0.000000   0.000000   0.000000   0.000000   0.000000
     15       0.000000   0.000000   0.000000   0.000000   0.000000   0.000000
     16       0.000000   0.000000   0.000000   0.000000   0.000000   0.000000
     17       0.000000   0.000000   0.000000   0.000000   0.000000   0.000000
     18       0.000000   0.000000   0.000000   0.000000   0.000000   0.000000
     19       0.000000   0.000000   0.000000   0.000000   0.000000   0.000000
     20       0.000000   0.000000   0.000000   0.000000   0.000000   0.000000
     21       0.000000   0.000000   0.000000   0.000000   0.000000   0.000000
     22       0.000000   0.000000   0.000000   0.000000   0.000000   0.000000
     23       0.000000   0.000000   0.000000   0.000000   0.000000   0.000000
     24       0.000000   0.000000   0.000000   0.000000   0.000000   0.000000
     25       0.000000   0.000000   0.000000   0.000000   0.000000   0.000000
     26       0.000000   0.000000   0.000000   0.000000   0.000000   0.000000
     27       0.000000   0.000000   0.000000   0.000000   0.000000   0.000000
     28       0.000000   0.000000   0.000000   0.000000   0.000000   0.000000
     29       0.000000   0.000000   0.000000   0.000000   0.000000   0.000000
                  6          7          8          9         10         11    
      0      -0.049131  -0.004986  -0.000836  -0.010751   0.139413   0.029760
      1       0.010155   0.000191   0.000070   0.005870   0.103944  -0.017684
      2       0.002606   0.007336   0.043566  -0.029261  -0.001767  -0.030069
      3       0.001977   0.000391   0.000716   0.005811   0.030100  -0.026099
      4      -0.006225  -0.002431   0.000203   0.004225  -0.176982  -0.006183
      5      -0.000098  -0.000328  -0.003216  -0.030900  -0.000028  -0.012997
      6       0.016904   0.002060   0.000150   0.006564  -0.008355  -0.015091
      7       0.061520   0.009492  -0.000771  -0.003929   0.136646   0.005678
      8       0.003441  -0.037409   0.005852   0.153970   0.004777   0.211260
      9      -0.006200  -0.008319   0.000717   0.007801  -0.173092  -0.000603
     10       0.007304   0.001376  -0.000379  -0.007334   0.002939   0.021323
     11      -0.000273   0.011507  -0.050126   0.076740   0.002366  -0.180865
     12      -0.001493   0.004584  -0.002899  -0.009299   0.430739   0.001540
     13      -0.006802  -0.003338   0.000911   0.007925  -0.266840  -0.012616
     14      -0.000449   0.007669   0.565134  -0.121716   0.001271  -0.178923
     15       0.006462   0.019980   0.065544   0.208127  -0.146489   0.259219
     16      -0.002922  -0.025544  -0.488318   0.038420  -0.373690   0.017383
     17       0.002397  -0.024582  -0.291314  -0.120192  -0.009169  -0.152865
     18       0.009568  -0.023215  -0.063176  -0.182922  -0.156891  -0.338660
     19      -0.003964   0.014253   0.495418  -0.013174  -0.369467  -0.058299
     20       0.000259  -0.024305  -0.292946  -0.121250   0.001373  -0.152083
     21       0.071468   0.012210   0.000240   0.012685  -0.122342  -0.011508
     22       0.004041   0.002421  -0.002398  -0.045219  -0.274231   0.102548
     23       0.076076  -0.708796  -0.000570  -0.663400   0.001098   0.128746
     24       0.097607   0.027593  -0.001969  -0.038347  -0.458030   0.092506
     25      -0.025648  -0.009211   0.000492   0.005339   0.078895  -0.003785
     26      -0.049749   0.359526  -0.114792  -0.479038  -0.038439   0.772358
     27       0.445094   0.107910  -0.003333  -0.060005   0.043643   0.022546
     28      -0.871798  -0.082132   0.004069  -0.002589   0.001134  -0.012604
     29      -0.106473   0.586597   0.008875  -0.410842  -0.012875  -0.147289
                 12         13         14         15         16         17    
      0      -0.185953   0.030602   0.039399  -0.022364  -0.050021  -0.001102
      1       0.116059   0.059117   0.141232  -0.195880  -0.031074  -0.000601
      2       0.001820   0.083653  -0.056050   0.000085   0.001183   0.020100
      3       0.180791  -0.097900  -0.217426  -0.019787  -0.055501  -0.000919
      4       0.034419  -0.025395  -0.050228   0.008697   0.159382  -0.001811
      5      -0.002909  -0.030508   0.019943  -0.001789   0.001192   0.159745
      6       0.101242   0.019397   0.065027   0.019096   0.057038   0.003451
      7      -0.024076  -0.020279  -0.045698   0.075898   0.026801  -0.000860
      8       0.020963  -0.099049   0.064557   0.000185  -0.002919  -0.151539
      9      -0.021601   0.070248   0.156602   0.085062   0.058981   0.000775
     10      -0.142737  -0.015491  -0.051100   0.187206  -0.084272   0.001112
     11      -0.041806   0.047802  -0.038327  -0.003975   0.000952   0.026250
     12       0.043437  -0.160794  -0.390411  -0.009778   0.672089  -0.014523
     13       0.067558  -0.013704  -0.017079   0.010233  -0.011827   0.001198
     14      -0.024217   0.049424  -0.029216   0.003756   0.001313  -0.325226
     15       0.269912  -0.203819  -0.092504  -0.029861  -0.365976   0.617284
     16       0.113556  -0.041232   0.039953   0.006988  -0.311816  -0.005308
     17      -0.009702   0.017997  -0.001451   0.002258  -0.072942  -0.184364
     18       0.217907   0.047145  -0.242171  -0.009397  -0.374386  -0.616886
     19       0.102334   0.040179  -0.014770   0.006584  -0.308763   0.014652
     20      -0.017529   0.014227  -0.010971   0.005532   0.068566  -0.189933
     21       0.029115   0.084668   0.211505   0.180800   0.051332   0.000008
     22      -0.573555  -0.154256  -0.433292  -0.482391  -0.060137  -0.002908
     23       0.065048  -0.259846   0.183153   0.001862   0.000951   0.074760
     24      -0.554860  -0.062355  -0.162921  -0.689196   0.076841  -0.021918
     25      -0.009503   0.013205   0.021777   0.395175  -0.092119   0.006968
     26       0.254745   0.526297  -0.315342   0.026541   0.002433  -0.036269
     27      -0.157285  -0.092207   0.001073  -0.092946   0.012935   0.014117
     28       0.035089  -0.053684  -0.086324  -0.066263   0.063537   0.013515
     29      -0.014213  -0.701672   0.513262   0.025187  -0.009861  -0.068560
                 18         19         20         21         22         23    
      0       0.055409  -0.007052  -0.002891   0.000498   0.010513   0.008692
      1       0.066965  -0.047554   0.002496   0.001137   0.002206   0.013405
      2      -0.002284  -0.001450   0.000286  -0.003201  -0.001393  -0.000944
      3       0.070518  -0.036539  -0.142868   0.000806   0.005847  -0.002831
      4       0.054964  -0.061899  -0.007558  -0.000947   0.033320  -0.033465
      5       0.005274   0.004044   0.000245   0.052434   0.001304  -0.003009
      6      -0.247520   0.031408   0.023864  -0.000539   0.012973  -0.018856
      7      -0.133867   0.211261  -0.016543  -0.004047   0.030969  -0.022030
      8      -0.002741  -0.003421   0.000789   0.021719  -0.001124  -0.001096
      9       0.070597   0.014324  -0.008727   0.002498   0.032527   0.056064
     10       0.069405  -0.074987   0.002276  -0.001515  -0.041903  -0.045193
     11      -0.004285  -0.001817   0.000452  -0.001531  -0.001765  -0.000953
     12       0.414727   0.091614   0.481286   0.014287  -0.296533   0.332065
     13      -0.022008  -0.074250  -0.135521  -0.003457   0.082429  -0.093628
     14      -0.014331  -0.021964  -0.004363  -0.714330  -0.001109   0.042089
     15       0.118465   0.090479   0.510419  -0.271129   0.133910  -0.128094
     16      -0.058950   0.215727   0.094374  -0.401348  -0.334388   0.345948
     17      -0.070943   0.072736  -0.267078  -0.034397  -0.245162   0.250753
     18       0.087522   0.085778   0.514529   0.243731   0.127969  -0.157816
     19      -0.055066   0.234617   0.101282   0.429636  -0.333858   0.295364
     20       0.061911  -0.077944   0.264444  -0.063936   0.242404  -0.242093
     21       0.130225   0.027421  -0.014695  -0.002942  -0.050736  -0.034753
     22      -0.393376  -0.184487   0.066050   0.033057   0.465028   0.507764
     23       0.003319   0.006418  -0.000703  -0.006089  -0.003944  -0.005925
     24       0.159100   0.429806  -0.083097  -0.030240  -0.294402  -0.444383
     25       0.037003  -0.180558   0.021321   0.007060   0.050993   0.086304
     26      -0.000598  -0.000014  -0.000575  -0.008625  -0.001968  -0.000822
     27      -0.521606  -0.722724   0.159446   0.005436  -0.398901  -0.114595
     28      -0.457309  -0.142488   0.072936  -0.005418  -0.231945  -0.154764
     29       0.077773   0.058011  -0.013973   0.012832   0.050761   0.031250
                 24         25         26         27         28         29    
      0      -0.002169   0.000240   0.000020  -0.000202   0.001316   0.000478
      1       0.020845   0.000016   0.000057  -0.000841  -0.000955   0.001387
      2      -0.001000   0.000045  -0.000203  -0.000014  -0.000091   0.000088
      3      -0.045580  -0.050223  -0.005212   0.000655   0.000922   0.000397
      4       0.014226   0.016151  -0.001916   0.090089   0.002587  -0.002050
      5       0.000822  -0.009081   0.090908   0.003524  -0.000026  -0.000043
      6       0.300267   0.000044   0.000065  -0.001816   0.004696  -0.002626
      7      -0.208982   0.000724  -0.000046   0.002385  -0.006538  -0.003580
      8      -0.002198  -0.000042   0.001062   0.000111   0.000035  -0.000021
      9      -0.187861  -0.000435  -0.000119  -0.000131  -0.046571  -0.068283
     10       0.184956  -0.000035   0.000146  -0.003760   0.050374  -0.068397
     11      -0.001623  -0.000076   0.000121  -0.000000  -0.000051  -0.000238
     12       0.160404   0.064254   0.014520  -0.195671  -0.003362   0.007110
     13      -0.045251   0.344230   0.071933  -0.914142  -0.025735   0.023645
     14       0.001068  -0.001757   0.021328   0.000857   0.000198  -0.000036
     15      -0.131050   0.293907  -0.273946   0.089293  -0.003201  -0.004012
     16       0.038413  -0.300590   0.275966  -0.070831   0.001437   0.002877
     17       0.065342   0.593199  -0.507942   0.179654  -0.001037  -0.004910
     18      -0.138038   0.234756   0.320753   0.112543  -0.003785  -0.004438
     19       0.035287  -0.240135  -0.325145  -0.094265   0.002063   0.003360
     20      -0.065382  -0.482620  -0.606661  -0.223289   0.002129   0.005764
     21      -0.197351   0.010248   0.002202   0.001720   0.706519   0.684565
     22       0.035759   0.000770   0.000227  -0.002848   0.113346   0.098384
     23       0.001435   0.000098   0.000982  -0.000141   0.005751   0.005374
     24       0.209239  -0.001683  -0.000593   0.009051  -0.183148   0.173311
     25       0.135339  -0.008243  -0.002292   0.033247  -0.667330   0.692377
     26      -0.005103  -0.000032   0.000145   0.000191  -0.002207   0.000642
     27      -0.665053  -0.002187  -0.000505   0.001665  -0.045939  -0.023932
     28      -0.413611   0.003061   0.000045   0.005093   0.038234   0.039438
     29       0.054254   0.000000  -0.001965  -0.000365  -0.002891  -0.004646


-----------
IR SPECTRUM
-----------

 Mode   freq       eps      Int      T**2         TX        TY        TZ
       cm**-1   L/(mol*cm) km/mol    a.u.
----------------------------------------------------------------------------
  8:    164.76   0.000090    0.46  0.000171  (-0.000947  0.000982 -0.013017)
  9:    319.97   0.019007   96.05  0.018537  (-0.004519 -0.001362 -0.136070)
 10:    387.46   0.000147    0.74  0.000118  (-0.009266 -0.004868 -0.002955)
 11:    535.47   0.005779   29.21  0.003368  (-0.001386 -0.000987  0.058011)
 12:    545.67   0.000764    3.86  0.000437  ( 0.009682  0.006122  0.017490)
 13:    783.41   0.002921   14.76  0.001163  (-0.008039 -0.017571 -0.028108)
 14:    805.16   0.003184   16.09  0.001234  ( 0.002125 -0.029620  0.018772)
 15:    940.28   0.005454   27.56  0.001810  ( 0.003504  0.042363  0.001780)
 16:    997.47   0.002715   13.72  0.000849  ( 0.009546  0.027534 -0.000409)
 17:   1041.33   0.000392    1.98  0.000117  ( 0.000103  0.002050 -0.010636)
 18:   1207.41   0.026702  134.94  0.006901  (-0.032666 -0.076329  0.002856)
 19:   1364.46   0.008350   42.20  0.001910  (-0.010463  0.042404  0.001431)
 20:   1381.88   0.002326   11.75  0.000525  ( 0.021388  0.008209 -0.000645)
 21:   1441.66   0.001329    6.72  0.000288  (-0.000694 -0.000588 -0.016936)
 22:   1449.21   0.004700   23.75  0.001012  (-0.019640 -0.024964  0.001740)
 23:   1454.76   0.002723   13.76  0.000584  (-0.024017  0.001987  0.001804)
 24:   1696.81   0.031332  158.34  0.005762  ( 0.028279 -0.070433  0.001363)
 25:   2948.94   0.002216   11.20  0.000235  (-0.014806  0.003560 -0.001625)
 26:   2994.32   0.002146   10.84  0.000224  (-0.001423 -0.000567  0.014876)
 27:   3039.67   0.003919   19.81  0.000402  ( 0.005041  0.019409  0.000488)
 28:   3089.04   0.001841    9.30  0.000186  ( 0.004345 -0.012924  0.000292)
 29:   3167.52   0.001451    7.34  0.000143  ( 0.004214 -0.011191 -0.000104)

* The epsilon (eps) is given for a Dirac delta lineshape.
** The dipole moment derivative (T) already includes vibrational overlap.

The first frequency considered to be a vibration is 8
The total number of vibrations considered is 22


--------------------------
THERMOCHEMISTRY AT 298.15K
--------------------------

Temperature         ... 298.15 K
Pressure            ... 1.00 atm
Total Mass          ... 58.08 AMU

Throughout the following assumptions are being made:
  (1) The electronic state is orbitally nondegenerate
  (2) There are no thermally accessible electronically excited states
  (3) Hindered rotations indicated by low frequency modes are not
      treated as such but are treated as vibrations and this may
      cause some error
  (4) All equations used are the standard statistical mechanics
      equations for an ideal gas
  (5) All vibrations are strictly harmonic

freq.     164.76  E(vib)   ...       0.39 
freq.     319.97  E(vib)   ...       0.25 
freq.     387.46  E(vib)   ...       0.20 
freq.     535.47  E(vib)   ...       0.12 
freq.     545.67  E(vib)   ...       0.12 
freq.     783.41  E(vib)   ...       0.05 
freq.     805.16  E(vib)   ...       0.05 
freq.     940.28  E(vib)   ...       0.03 
freq.     997.47  E(vib)   ...       0.02 
freq.    1041.33  E(vib)   ...       0.02 
freq.    1207.41  E(vib)   ...       0.01 
freq.    1364.46  E(vib)   ...       0.01 
freq.    1381.88  E(vib)   ...       0.01 
freq.    1441.66  E(vib)   ...       0.00 
freq.    1449.21  E(vib)   ...       0.00 
freq.    1454.76  E(vib)   ...       0.00 
freq.    1696.81  E(vib)   ...       0.00 
freq.    2948.94  E(vib)   ...       0.00 
freq.    2994.32  E(vib)   ...       0.00 
freq.    3039.67  E(vib)   ...       0.00 
freq.    3089.04  E(vib)   ...       0.00 
freq.    3167.52  E(vib)   ...       0.00 

------------
INNER ENERGY
------------

The inner energy is: U= E(el) + E(ZPE) + E(vib) + E(rot) + E(trans)
    E(el)   - is the total energy from the electronic structure calculation
              = E(kin-el) + E(nuc-el) + E(el-el) + E(nuc-nuc)
    E(ZPE)  - the the zero temperature vibrational energy from the frequency calculation
    E(vib)  - the the finite temperature correction to E(ZPE) due to population
              of excited vibrational states
    E(rot)  - is the rotational thermal energy
    E(trans)- is the translational thermal energy

Summary of contributions to the inner energy U:
Electronic energy                ...   -193.04358854 Eh
Zero point energy                ...      0.07234697 Eh      45.40 kcal/mol
Thermal vibrational correction   ...      0.00205582 Eh       1.29 kcal/mol
Thermal rotational correction    ...      0.00141627 Eh       0.89 kcal/mol
Thermal translational correction ...      0.00141627 Eh       0.89 kcal/mol
-----------------------------------------------------------------------
Total thermal energy                   -192.96635320 Eh


Summary of corrections to the electronic energy:
(perhaps to be used in another calculation)
Total thermal correction                  0.00488837 Eh       3.07 kcal/mol
Non-thermal (ZPE) correction              0.07234697 Eh      45.40 kcal/mol
-----------------------------------------------------------------------
Total correction                          0.07723533 Eh      48.47 kcal/mol


--------
ENTHALPY
--------

The enthalpy is H = U + kB*T
                kB is Boltzmann's constant
Total free energy                 ...   -192.96635320 Eh 
[...]
     16       0.000000   0.000000   0.000000   0.000000   0.000000   0.000000
     17       0.000000   0.000000   0.000000   0.000000   0.000000   0.000000
     18       0.000000   0.000000   0.000000   0.000000   0.000000   0.000000
     19       0.000000   0.000000   0.000000   0.000000   0.000000   0.000000
     20       0.000000   0.000000   0.000000   0.000000   0.000000   0.000000
     21       0.000000   0.000000   0.000000   0.000000   0.000000   0.000000
     22       0.000000   0.000000   0.000000   0.000000   0.000000   0.000000
     23       0.000000   0.000000   0.000000   0.000000   0.000000   0.000000
     24       0.000000   0.000000   0.000000   0.000000   0.000000   0.000000
     25       0.000000   0.000000   0.000000   0.000000   0.000000   0.000000
     26       0.000000   0.000000   0.000000   0.000000   0.000000   0.000000
     27       0.000000   0.000000   0.000000   0.000000   0.000000   0.000000
     28       0.000000   0.000000   0.000000   0.000000   0.000000   0.000000
     29       0.000000   0.000000   0.000000   0.000000   0.000000   0.000000
                  6          7          8          9         10         11    
      0       0.043393   0.000810  -0.120813  -0.049060  -0.089325  -0.203292
      1       0.002258   0.013899  -0.101431  -0.007192   0.008575   0.089440
      2      -0.007166   0.050288   0.041522  -0.015047  -0.076314   0.061251
      3       0.001616  -0.000508  -0.058057  -0.001465   0.070631   0.243629
      4       0.001382  -0.005785   0.163800   0.026661   0.026878   0.035822
      5      -0.003543  -0.010509  -0.025819  -0.050769  -0.000608  -0.057465
      6       0.005608  -0.000439  -0.003326   0.028170   0.042277   0.087074
      7      -0.060054  -0.006257  -0.157762   0.020661   0.023651  -0.052401
      8       0.008281  -0.015079  -0.021431   0.201698   0.090931  -0.143194
      9      -0.038872  -0.000666   0.203179   0.017890   0.027321  -0.124670
     10      -0.024151  -0.010106   0.025020  -0.027721  -0.039089  -0.121191
     11       0.013659  -0.040774  -0.018487  -0.025125   0.018850   0.113132
     12      -0.000439   0.038596  -0.436324   0.119340   0.140654  -0.090213
     13       0.002211  -0.229047   0.272154   0.035672   0.018191   0.088918
     14      -0.000354   0.537193  -0.027969  -0.164544  -0.029265   0.060474
     15      -0.005541  -0.009685   0.239931   0.190182   0.105690   0.304074
     16      -0.003196  -0.292854   0.386169   0.024789   0.009265   0.181196
     17      -0.009797  -0.435393  -0.018732  -0.263355  -0.065998   0.102610
     18       0.000096  -0.035026  -0.051392  -0.369002  -0.045512   0.558319
     19       0.006594   0.602160   0.286011   0.031305   0.005835   0.145326
     20      -0.005389  -0.015345  -0.023197  -0.147562  -0.030991   0.027959
     21       0.133735  -0.005546  -0.022763   0.506352  -0.207983   0.233860
     22       0.074646  -0.043883   0.145724   0.036600  -0.599415   0.082339
     23      -0.157511  -0.026511   0.127386  -0.434338   0.373334  -0.247248
     24      -0.073692   0.009828   0.486415  -0.049914  -0.245062  -0.218276
     25      -0.017897  -0.006103  -0.013485  -0.025631   0.037109  -0.116323
     26       0.111104  -0.096102  -0.049861   0.087078  -0.485857   0.289827
     27      -0.365795   0.008210   0.012094  -0.149648  -0.000939  -0.016128
     28       0.888695   0.013031   0.163279  -0.222147   0.256608  -0.159423
     29      -0.043527   0.028732   0.116644  -0.337491   0.149153  -0.162857
                 12         13         14         15         16         17    
      0      -0.028295  -0.003731  -0.047537  -0.009377   0.011344   0.032693
      1      -0.031451  -0.121258   0.072066  -0.069619   0.071330   0.056631
      2       0.022144   0.010806  -0.008750   0.023832  -0.065990   0.010591
      3       0.061348   0.170415  -0.059158  -0.001765   0.010042   0.015350
      4       0.016332   0.073147   0.112237   0.088200  -0.073371  -0.010387
      5       0.009068   0.023026   0.044700  -0.127196  -0.085214   0.006925
      6      -0.000790  -0.094332   0.037700  -0.049212  -0.006088  -0.026731
      7       0.008431  -0.011586   0.034108   0.017863   0.056526  -0.039346
      8       0.036984   0.026664  -0.060107   0.067375   0.173459  -0.000150
      9       0.028328  -0.149481   0.052171   0.059248  -0.050197   0.015885
     10       0.004087   0.077480  -0.195570   0.023460  -0.108805  -0.023007
     11      -0.133954  -0.019128   0.024517  -0.002001  -0.063217   0.036089
     12       0.183601   0.519176   0.525033   0.200399  -0.365349  -0.014736
     13       0.007054   0.008621  -0.028912  -0.109368  -0.044806   0.001318
     14      -0.055048  -0.077152  -0.051434   0.231056   0.145222  -0.002929
     15       0.100845   0.122669  -0.412575  -0.550824   0.065310   0.094114
     16      -0.016132  -0.065440  -0.239754  -0.097742   0.160525   0.026439
     17      -0.083309  -0.124928  -0.095649   0.215403   0.208665  -0.024594
     18      -0.101441  -0.037592  -0.236488   0.609671   0.327178  -0.033433
     19      -0.007983  -0.091875  -0.217060  -0.107400   0.149427   0.004119
     20      -0.035109  -0.036202  -0.009155   0.043281   0.011561  -0.003719
     21      -0.484728  -0.159548  -0.038498   0.092187  -0.274894  -0.339194
     22       0.140995   0.360619   0.100807  -0.110071   0.246260   0.102717
     23       0.256579  -0.106279   0.013608   0.012800   0.027847   0.266905
     24      -0.329363   0.498593   0.434870  -0.100607   0.544605   0.167027
     25      -0.034532   0.036684  -0.259454   0.037204  -0.203222  -0.018104
     26       0.683728  -0.373637   0.126435   0.036846   0.079402  -0.217692
     27       0.021043  -0.009489   0.116195  -0.200543   0.074111  -0.446347
     28       0.066033   0.019233   0.087087  -0.050990   0.056879  -0.148591
     29      -0.070888   0.182518   0.046513  -0.180993   0.276472  -0.696832
                 18         19         20         21         22         23    
      0       0.039782  -0.013239   0.020365  -0.005882   0.008692  -0.014444
      1       0.061717  -0.034304   0.093972  -0.010552   0.018417  -0.092241
      2      -0.016763   0.009992  -0.033997   0.005315  -0.011682   0.031029
      3       0.038966  -0.138028  -0.069190  -0.004114   0.053583  -0.006928
      4      -0.018439  -0.043665   0.069684   0.015246   0.002093   0.002901
      5       0.027317   0.023907   0.004322   0.037321   0.036769   0.008514
      6      -0.255796   0.055130   0.017885   0.070616  -0.071999  -0.038196
      7       0.003275   0.043638  -0.169322  -0.010864  -0.001327   0.212688
      8      -0.034029  -0.000262   0.049132   0.016291   0.022379  -0.046230
      9       0.078035  -0.003960  -0.015164  -0.076287   0.072781   0.045818
     10      -0.023589  -0.013279   0.027087   0.062076  -0.059073  -0.065459
     11      -0.002292   0.007481  -0.018629  -0.022894   0.011166   0.022942
     12       0.231810   0.472609   0.099614  -0.287699  -0.256326  -0.339794
     13       0.002521  -0.033773  -0.110721   0.217047   0.256334  -0.031789
     14      -0.143620  -0.383049   0.287772  -0.296389  -0.400173   0.309506
     15       0.350793   0.301787   0.280910  -0.148843  -0.223029   0.384867
     16       0.108805   0.177034   0.009469  -0.363936  -0.366334  -0.001762
     17      -0.118555  -0.121652  -0.419991  -0.384340  -0.237866  -0.416033
     18       0.178773   0.514942   0.305054   0.257536   0.165452   0.137170
     19       0.093948   0.339624  -0.580627  -0.060214   0.139435  -0.541525
     20       0.056759   0.170906   0.096265   0.088093   0.052550   0.039804
     21       0.281775  -0.058270  -0.058157   0.002914  -0.033592   0.020010
     22      -0.536281   0.143987   0.151873  -0.404416   0.411207   0.105482
     23       0.019104  -0.003621  -0.027627   0.067779  -0.054930  -0.006402
     24       0.213778  -0.049101  -0.180796   0.371206  -0.343610  -0.007487
     25      -0.104505   0.008773   0.058525  -0.027858   0.026619  -0.052113
     26       0.346092  -0.101849  -0.050210   0.230774  -0.222480  -0.077298
     27      -0.234510   0.063127   0.022168   0.014837  -0.094647   0.026224
     28      -0.082303   0.067385  -0.155554   0.014954  -0.064806   0.196868
     29       0.213576  -0.090205   0.238432  -0.156306   0.210491  -0.166032
                 24         25         26         27         28         29    
      0      -0.010576  -0.000215  -0.000053   0.000024   0.000084   0.000283
      1      -0.026325  -0.000473  -0.000577  -0.000004  -0.000785  -0.000784
      2       0.001008   0.000100   0.000342  -0.000262   0.000290   0.000114
      3      -0.016774   0.042005  -0.002225  -0.014299  -0.025293  -0.000283
      4      -0.001875   0.011387  -0.006690  -0.040865   0.081328   0.003075
      5       0.008053  -0.030204  -0.015293  -0.074856  -0.036872   0.000656
      6       0.102600  -0.000018   0.003696   0.000032   0.000359   0.003132
      7       0.053986   0.000550  -0.002177  -0.000156   0.002186   0.000171
      8      -0.035352  -0.000409  -0.001342  -0.000924  -0.000838   0.000369
      9      -0.002445   0.000219  -0.039231   0.008521  -0.000238   0.033032
     10       0.004903  -0.000913   0.026768  -0.003525  -0.002752   0.080486
     11      -0.019933   0.000542  -0.045754   0.010166  -0.000535   0.037981
     12       0.010903  -0.113154   0.034953   0.189508  -0.108646  -0.008807
     13      -0.013833  -0.433731   0.120446   0.683846  -0.368516  -0.027384
     14       0.020741  -0.183872   0.044816   0.256896  -0.161223  -0.011354
     15       0.019813  -0.202622   0.021551   0.119073   0.455802   0.006164
     16       0.028064   0.292918  -0.034525  -0.177582  -0.629154  -0.009963
     17       0.001692  -0.201631   0.018638   0.094119   0.420129   0.006505
     18      -0.047369  -0.181387  -0.032364  -0.146668  -0.051131   0.000343
     19      -0.018122   0.003699  -0.002054  -0.012394   0.018625   0.000969
     20      -0.000412   0.749442   0.121900   0.555341   0.184445  -0.002618
     21      -0.027535  -0.006430   0.508890  -0.107385   0.003145  -0.306039
     22      -0.004716  -0.003027   0.211080  -0.043425   0.000328  -0.105007
     23       0.010403  -0.009176   0.628394  -0.133925   0.004190  -0.389416
     24       0.049574   0.001782  -0.075658   0.012335   0.003591  -0.112796
     25       0.007976   0.014692  -0.500566   0.080569   0.024642  -0.845228
     26       0.051287   0.002244  -0.070166   0.011630   0.002915  -0.078492
     27      -0.831065   0.002291  -0.006616   0.001220  -0.004162  -0.010912
     28      -0.260909   0.001593   0.001467  -0.000158   0.004188   0.001334
     29       0.463085  -0.000286  -0.005606   0.001942   0.000649   0.008778


-----------
IR SPECTRUM
-----------

 Mode   freq       eps      Int      T**2         TX        TY        TZ
       cm**-1   L/(mol*cm) km/mol    a.u.
----------------------------------------------------------------------------
  7:     76.47   0.000040    0.20  0.000162  ( 0.010309  0.001496  0.007310)
  8:    372.26   0.000977    4.94  0.000819  (-0.010105  0.026678 -0.002197)
  9:    422.39   0.005072   25.63  0.003748  ( 0.049195 -0.031837 -0.017714)
 10:    563.38   0.004205   21.25  0.002329  (-0.031895  0.035937  0.004524)
 11:    629.19   0.007753   39.18  0.003845  ( 0.052196 -0.032925 -0.006077)
 12:    751.74   0.014962   75.61  0.006211  (-0.059067  0.033445  0.040047)
 13:    870.56   0.000500    2.53  0.000179  ( 0.006910  0.000994 -0.011430)
 14:    953.44   0.000437    2.21  0.000143  ( 0.010834  0.003001 -0.004100)
 15:    994.61   0.005210   26.33  0.001635  (-0.034312  0.021259 -0.002340)
 16:   1066.56   0.002476   12.51  0.000724  (-0.001702 -0.016134  0.021475)
 17:   1099.41   0.013420   67.82  0.003809  (-0.053480 -0.003232 -0.030637)
 18:   1294.37   0.008933   45.14  0.002154  (-0.044116 -0.001444  0.014332)
 19:   1358.66   0.010221   51.65  0.002348  ( 0.028600  0.034380 -0.018645)
 20:   1399.09   0.028968  146.39  0.006461  ( 0.022083 -0.075044  0.018494)
 21:   1438.41   0.005164   26.10  0.001120  ( 0.025948 -0.017547 -0.011800)
 22:   1444.05   0.002613   13.20  0.000565  (-0.020024  0.000509 -0.012783)
 23:   1467.63   0.021858  110.46  0.004648  (-0.030551  0.056832 -0.022011)
 24:   1729.54   0.001456    7.36  0.000263  ( 0.011928  0.010667  0.002572)
 25:   2967.07   0.000371    1.87  0.000039  ( 0.005887 -0.000687 -0.001964)
 26:   3016.91   0.000167    0.84  0.000017  ( 0.003118  0.002558 -0.001010)
 27:   3018.92   0.001057    5.34  0.000109  (-0.004763 -0.005097 -0.007786)
 28:   3062.58   0.002428   12.27  0.000247  (-0.010961  0.010148 -0.004923)
 29:   3087.44   0.002249   11.36  0.000227  (-0.000279  0.015037  0.001033)

* The epsilon (eps) is given for a Dirac delta lineshape.
** The dipole moment derivative (T) already includes vibrational overlap.

The first frequency considered to be a vibration is 7
The total number of vibrations considered is 23


--------------------------
THERMOCHEMISTRY AT 298.15K
--------------------------

Temperature         ... 298.15 K
Pressure            ... 1.00 atm
Total Mass          ... 58.08 AMU

Throughout the following assumptions are being made:
  (1) The electronic state is orbitally nondegenerate
  (2) There are no thermally accessible electronically excited states
  (3) Hindered rotations indicated by low frequency modes are not
      treated as such but are treated as vibrations and this may
      cause some error
  (4) All equations used are the standard statistical mechanics
      equations for an ideal gas
  (5) All vibrations are strictly harmonic

freq.      76.47  E(vib)   ...       0.49 
freq.     372.26  E(vib)   ...       0.21 
freq.     422.39  E(vib)   ...       0.18 
freq.     563.38  E(vib)   ...       0.11 
freq.     629.19  E(vib)   ...       0.09 
freq.     751.74  E(vib)   ...       0.06 
freq.     870.56  E(vib)   ...       0.04 
freq.     953.44  E(vib)   ...       0.03 
freq.     994.61  E(vib)   ...       0.02 
freq.    1066.56  E(vib)   ...       0.02 
freq.    1099.41  E(vib)   ...       0.02 
freq.    1294.37  E(vib)   ...       0.01 
freq.    1358.66  E(vib)   ...       0.01 
freq.    1399.09  E(vib)   ...       0.00 
freq.    1438.41  E(vib)   ...       0.00 
freq.    1444.05  E(vib)   ...       0.00 
freq.    1467.63  E(vib)   ...       0.00 
freq.    1729.54  E(vib)   ...       0.00 
freq.    2967.07  E(vib)   ...       0.00 
freq.    3016.91  E(vib)   ...       0.00 
freq.    3018.92  E(vib)   ...       0.00 
freq.    3062.58  E(vib)   ...       0.00 
freq.    3087.44  E(vib)   ...       0.00 

------------
INNER ENERGY
------------

The inner energy is: U= E(el) + E(ZPE) + E(vib) + E(rot) + E(trans)
    E(el)   - is the total energy from the electronic structure calculation
              = E(kin-el) + E(nuc-el) + E(el-el) + E(nuc-nuc)
    E(ZPE)  - the the zero temperature vibrational energy from the frequency calculation
    E(vib)  - the the finite temperature correction to E(ZPE) due to population
              of excited vibrational states
    E(rot)  - is the rotational thermal energy
    E(trans)- is the translational thermal energy

Summary of contributions to the inner energy U:
Electronic energy                ...   -193.06999343 Eh
Zero point energy                ...      0.07537245 Eh      47.30 kcal/mol
Thermal vibrational correction   ...      0.00206895 Eh       1.30 kcal/mol
Thermal rotational correction    ...      0.00141627 Eh       0.89 kcal/mol
Thermal translational correction ...      0.00141627 Eh       0.89 kcal/mol
-----------------------------------------------------------------------
Total thermal energy                   -192.98971948 Eh


Summary of corrections to the electronic energy:
(perhaps to be used in another calculation)
Total thermal correction                  0.00490149 Eh       3.08 kcal/mol
Non-thermal (ZPE) correction              0.07537245 Eh      47.30 kcal/mol
-----------------------------------------------------------------------
Total correction                          0.08027395 Eh      50.37 kcal/mol


--------
ENTHALPY
--------

The enthalpy is H = U + kB*T
                kB is Boltzmann's constant
Total free energy                 ...   -192.98971948 Eh 
Thermal Enthalpy correction       ...      0.00094421 Eh       0.59 kcal/mol
-----------------------------------------------------------------------
Total Enthalpy                    ...   -192.98877527 Eh


Note: Only C1 symmetry has been detected, increase convergence thresholds 
      if your molecule has a higher symmetry. Symmetry factor of 1.0 is   
      used for the rotational entropy correction. 
 

Note: Rotational entropy computed according to Herzberg 
Infrared and Raman Spectra, Chapter V,1, Van Nostrand Reinhold, 1945 
Point Group:  C1, Symmetry Number:   1  
Rotational constants in cm-1:     0.382137     0.268573     0.165885 

Vibrational entropy computed according to the QRRHO of S. Grimme
Chem.Eur.J. 2012 18 9955


-------
ENTROPY
-------

The entropy contributions are T*S = T*(S(el)+S(vib)+S(rot)+S(trans))
     S(el)   - electronic entropy
     S(vib)  - vibrational entropy
     S(rot)  - rotational entropy
     S(trans)- translational entropy
The entropies will be listed as multiplied by the temperature to get
units of energy

Electronic entropy                ...      0.00000000 Eh      0.00 kcal/mol
Vibrational entropy               ...      0.00336629 Eh      2.11 kcal/mol
Rotational entropy                ...      0.01143367 Eh      7.17 kcal/mol
Translational entropy             ...      0.01810171 Eh     11.36 kcal/mol
-----------------------------------------------------------------------
Final entropy term                ...      0.03290168 Eh     20.65 kcal/mol

In case the symmetry of your molecule has not been determined correctly
or in case you have a reason to use a different symmetry number we print 
out the resulting rotational entropy values for sn=1,12 :
 --------------------------------------------------------
|  sn= 1 | S(rot)=       0.01143367 Eh      7.17 kcal/mol|
|  sn= 2 | S(rot)=       0.01077921 Eh      6.76 kcal/mol|
|  sn= 3 | S(rot)=       0.01039638 Eh      6.52 kcal/mol|
|  sn= 4 | S(rot)=       0.01012476 Eh      6.35 kcal/mol|
|  sn= 5 | S(rot)=       0.00991407 Eh      6.22 kcal/mol|
|  sn= 6 | S(rot)=       0.00974192 Eh      6.11 kcal/mol|
|  sn= 7 | S(rot)=       0.00959638 Eh      6.02 kcal/mol|
|  sn= 8 | S(rot)=       0.00947030 Eh      5.94 kcal/mol|
|  sn= 9 | S(rot)=       0.00935909 Eh      5.87 kcal/mol|
|  sn=10 | S(rot)=       0.00925961 Eh      5.81 kcal/mol|
|  sn=11 | S(rot)=       0.00916962 Eh      5.75 kcal/mol|
|  sn=12 | S(rot)=       0.00908747 Eh      5.70 kcal/mol|
 --------------------------------------------------------


-------------------
GIBBS FREE ENERGY
-------------------

The Gibbs free energy is G = H - T*S

Total enthalpy                    ...   -192.98877527 Eh 
Total entropy correction          ...     -0.03290168 Eh    -20.65 kcal/mol
-----------------------------------------------------------------------
Final Gibbs free energy         ...   -193.02167695 Eh

For completeness - the Gibbs free energy minus the electronic energy
G-E(el)                           ...      0.04831648 Eh     30.32 kcal/mol



Timings for individual modules:

Sum of individual times         ...      263.523 sec (=   4.392 min)
GTO integral calculation        ...       17.711 sec (=   0.295 min)   6.7 %
SCF iterations                  ...       72.068 sec (=   1.201 min)  27.3 %
SCF Gradient evaluation         ...       42.042 sec (=   0.701 min)  16.0 %
Geometry relaxation             ...        0.423 sec (=   0.007 min)   0.2 %
Numerical frequency calculation ...      131.278 sec (=   2.188 min)  49.8 %
                             ****ORCA TERMINATED NORMALLY****
TOTAL RUN TIME: 0 days 0 hours 4 minutes 32 seconds 9 msec
